{"includesElement": ["", "Tl", "O", "Pd"], "includesElement___series_id": [7, 1, 8], "includesElement__abundance_crust": [0.85, 461000.0, 0.015], "includesElement__atomic_number": [81, 8, 46], "includesElement__atomic_radius": [190.0, 60.0, 140.0], "includesElement__atomic_radius_rahm": [242.0, 171.0, 215.0], "includesElement__atomic_volume": [17.2, 14.0, 8.9], "includesElement__atomic_weight": [204.38, 15.999, 106.42], "includesElement__covalent_radius_cordero": [145.0, 66.0, 139.0], "includesElement__covalent_radius_pyykko": [144.0, 63.0, 120.0], "includesElement__covalent_radius_pyykko_double": [142.0, 57.0, 117.0], "includesElement__covalent_radius_pyykko_triple": [150.0, 53.0, 112.0], "includesElement__density": [11.8, 0.001308, 12.0], "includesElement__dipole_polarizability": [50.0, 5.3, 26.14], "includesElement__dipole_polarizability_unc": [2.0, 0.2, 0.1], "includesElement__discovery_year": [1861, 1774, 1803], "includesElement__electron_affinity": [0.377, 1.461113, 0.562], "includesElement__electronegativity_allred-rochow": [0.0002411265, 0.001146384, 0.0004756944], "includesElement__electronegativity_cottrell-sutton": [0.186339, 0.2687419, 0.2389212], "includesElement__electronegativity_ghosh": [0.173447, 0.304575, 0.1440276], "includesElement__electronegativity_gordy": [0.03472222, 0.07222222, 0.05708333], "includesElement__electronegativity_mulliken": [3.242643, 7.539584, 4.44943], "includesElement__electronegativity_nagle": [0.3914868, 1.042218, 0.7259357], "includesElement__electronegativity_pauling": [1.8, 3.44, 2.2], "includesElement__electronegativity_sanderson": [0.9245096, 0.9416494, 1.124263], "includesElement__en_ghosh": [0.173447, 0.304575, 0.1440276], "includesElement__en_pauling": [1.8, 3.44, 2.2], "includesElement__evaporation_heat": [162.4, 372.4], "includesElement__fusion_heat": [4.31, 17.24], "includesElement__glawe_number": [81, 97, 65], "includesElement__group_id": [13, 16, 10], "includesElement__heat_of_formation": [182.2, 249.229, 376.6], "includesElement__is_radioactive": [false], "includesElement__lattice_constant": [3.46, 6.83, 3.89], "includesElement__mendeleev_number": [85, 99, 68], "includesElement__molar_heat_capacity": [26.32, 29.378, 25.98], "includesElement__period": [6, 2, 5], "includesElement__pettifor_number": [78, 101, 69], "includesElement__specific_heat_capacity": [0.129, 0.918, 0.246], "includesElement__vdw_radius": [196.0, 152.0, 210.0], "includesElement__vdw_radius_alvarez": [247.0, 150.0, 215.0], "includesElement__vdw_radius_mm3": [259.0, 182.0, 237.0], "includesElement__vdw_radius_uff": [434.7, 350.0, 289.9], "includesElement__abundance_sea": [1.9e-05, 857000.0], "includesElement__c6_gb": [509.0, 16.7, 628.0], "includesElement__covalent_radius_bragg": [190.0, 65.0], "includesElement__metallic_radius": [144.0, 128.0], "includesElement__metallic_radius_c12": [160.0, 137.0], "includesElement__thermal_conductivity": [46.1, 0.027, 71.8], "includesElement__vdw_radius_batsanov": [220.0, 155.0, 205.0], "includesElement__vdw_radius_bondi": [196.0, 152.0], "includesElement__electronegativity_allen": [21.36, 9.402], "includesElement__en_allen": [21.36, 9.402], "includesElement__c6": [15.6], "includesElement__vdw_radius_dreiding": [340.46], "includesElement__gas_basicity": [459.6, 673.4], "includesElement__proton_affinity": [485.2, 696.0], "includesElement__vdw_radius_rt": [158.0], "includesElement__atomic_weight_uncertainty": [0.01], "formula": ["O8Pd6Tl2"], "spacegroup": ["225"], "thermalConductivity": [1.12873, 1.14946], "icsd": ["2275", "2276"], "band_gap": [1.0565], "density": [8.749107], "density_atomic": [13.94143], "deprecated": [false], "efermi": [3.540008], "energy_above_hull": [0.0], "energy_per_atom": [-18.99241], "formation_energy_per_atom": [-0.7544983], "homogeneous_poisson": [0.374], "is_gap_direct": [false], "is_magnetic": [false], "is_metal": [false], "is_stable": [true], "nelements": [3], "nsites": [16], "num_magnetic_sites": [0], "num_unique_magnetic_sites": [0], "theoretical": [false], "total_magnetization": [0.0], "total_magnetization_normalized_formula_units": [0.0], "total_magnetization_normalized_vol": [0.0], "uncorrected_energy_per_atom": [-18.99241], "universal_anisotropy": [0.026], "volume": [223.0629], "cbm": [4.5553], "e_electronic": [12.63136], "e_ionic": [18.00083], "e_total": [30.63219], "equilibrium_reaction_energy_per_atom": [-0.1005228], "n": [3.554063], "vbm": [3.4988]}