{"includesElement": ["", "Ga", "O", "Ce"], "includesElement___series_id": [7, 1, 9], "includesElement__abundance_crust": [19.0, 461000.0, 66.5], "includesElement__atomic_number": [31, 8, 58], "includesElement__atomic_radius": [130.0, 60.0, 185.0], "includesElement__atomic_radius_rahm": [233.0, 171.0, 282.0], "includesElement__atomic_volume": [11.8, 14.0, 21.0], "includesElement__atomic_weight": [69.723, 15.999, 140.116], "includesElement__covalent_radius_cordero": [122.0, 66.0, 204.0], "includesElement__covalent_radius_pyykko": [124.0, 63.0, 163.0], "includesElement__covalent_radius_pyykko_double": [117.0, 57.0, 137.0], "includesElement__covalent_radius_pyykko_triple": [121.0, 53.0, 131.0], "includesElement__density": [5.91, 0.001308, 6.77], "includesElement__dipole_polarizability": [50.0, 5.3, 205.0], "includesElement__dipole_polarizability_unc": [3.0, 0.2, 20.0], "includesElement__discovery_year": [1875, 1774, 1803], "includesElement__electron_affinity": [0.43, 1.461113, 0.65], "includesElement__electronegativity_allred-rochow": [0.0003251821, 0.001146384, 0.0001129135], "includesElement__electronegativity_cottrell-sutton": [0.2008048, 0.2687419, 0.1356647], "includesElement__electronegativity_ghosh": [0.1723773, 0.304575, 0.16761], "includesElement__electronegativity_gordy": [0.04032258, 0.07222222, 0.01840491], "includesElement__electronegativity_mulliken": [3.214651, 7.539584, 3.0943], "includesElement__electronegativity_nagle": [0.3914868, 1.042218, 0.2692167], "includesElement__electronegativity_pauling": [1.81, 3.44, 1.12], "includesElement__electronegativity_sanderson": [0.720541, 0.9416494, 0.5356179], "includesElement__en_ghosh": [0.1723773, 0.304575, 0.16761], "includesElement__en_pauling": [1.81, 3.44, 1.12], "includesElement__evaporation_heat": [270.3, 398.0], "includesElement__fusion_heat": [5.59, 5.2], "includesElement__glawe_number": [79, 97, 31], "includesElement__group_id": [13, 16], "includesElement__heat_of_formation": [271.96, 249.229, 420.1], "includesElement__is_radioactive": [false], "includesElement__lattice_constant": [4.51, 6.83, 5.16], "includesElement__mendeleev_number": [83, 99, 15], "includesElement__molar_heat_capacity": [26.03, 29.378, 26.94], "includesElement__period": [4, 2, 6], "includesElement__pettifor_number": [81, 101, 32], "includesElement__specific_heat_capacity": [0.373, 0.918, 0.192], "includesElement__vdw_radius": [187.0, 152.0, 242.0], "includesElement__vdw_radius_alvarez": [232.0, 150.0, 288.0], "includesElement__vdw_radius_mm3": [246.0, 182.0, 274.0], "includesElement__vdw_radius_uff": [438.3, 350.0, 355.6], "includesElement__abundance_sea": [3e-05, 857000.0, 1.2e-06], "includesElement__atomic_weight_uncertainty": [0.001], "includesElement__c6_gb": [456.0, 16.7, 3480.0], "includesElement__electronegativity_allen": [10.39, 21.36], "includesElement__en_allen": [10.39, 21.36], "includesElement__metallic_radius": [125.0], "includesElement__metallic_radius_c12": [140.0], "includesElement__thermal_conductivity": [28.1, 0.027, 11.3], "includesElement__vdw_radius_batsanov": [210.0, 155.0], "includesElement__c6": [498.0, 15.6], "includesElement__vdw_radius_dreiding": [439.0, 340.46], "includesElement__vdw_radius_bondi": [187.0, 152.0], "includesElement__covalent_radius_bragg": [65.0], "includesElement__gas_basicity": [459.6], "includesElement__proton_affinity": [485.2], "includesElement__vdw_radius_rt": [158.0], "formula": ["Ce1Ga1O3"], "spacegroup": ["221"], "thermalConductivity": [2.37931], "icsd": ["76048"], "band_gap": [0.0], "density": [4.980294], "density_atomic": [17.19371], "deprecated": [false], "efermi": [1.638552], "energy_above_hull": [0.8752422], "energy_per_atom": [-14.12301], "formation_energy_per_atom": [-2.089934], "is_gap_direct": [false], "is_magnetic": [true], "is_metal": [true], "is_stable": [false], "nelements": [3], "nsites": [5], "num_magnetic_sites": [4], "num_unique_magnetic_sites": [2], "theoretical": [false], "total_magnetization": [0.9933301], "total_magnetization_normalized_formula_units": [0.9933301], "total_magnetization_normalized_vol": [0.01155457], "uncorrected_energy_per_atom": [-6.589128], "volume": [85.96856]}