{"includesElement": ["", "Mg", "Tl"], "includesElement___series_id": [4, 7], "includesElement__abundance_crust": [23300.0, 0.85], "includesElement__atomic_number": [12, 81], "includesElement__atomic_radius": [150.0, 190.0], "includesElement__atomic_radius_rahm": [240.0, 242.0], "includesElement__atomic_volume": [14.0, 17.2], "includesElement__atomic_weight": [24.305, 204.38], "includesElement__covalent_radius_cordero": [141.0, 145.0], "includesElement__covalent_radius_pyykko": [139.0, 144.0], "includesElement__covalent_radius_pyykko_double": [132.0, 142.0], "includesElement__covalent_radius_pyykko_triple": [127.0, 150.0], "includesElement__density": [1.74, 11.8], "includesElement__dipole_polarizability": [71.2, 50.0], "includesElement__dipole_polarizability_unc": [0.4, 2.0], "includesElement__discovery_year": [1808, 1861], "includesElement__electronegativity_allred-rochow": [0.0001475079, 0.0002411265], "includesElement__electronegativity_cottrell-sutton": [0.1431908, 0.186339], "includesElement__electronegativity_ghosh": [0.121644, 0.173447], "includesElement__electronegativity_gordy": [0.0205036, 0.03472222], "includesElement__electronegativity_mulliken": [3.823117, 3.242643], "includesElement__electronegativity_nagle": [0.3039835, 0.3914868], "includesElement__electronegativity_pauling": [1.31, 1.8], "includesElement__electronegativity_sanderson": [0.1524211, 0.9245096], "includesElement__en_ghosh": [0.121644, 0.173447], "includesElement__en_pauling": [1.31, 1.8], "includesElement__evaporation_heat": [131.8, 162.4], "includesElement__fusion_heat": [9.2, 4.31], "includesElement__glawe_number": [73, 81], "includesElement__group_id": [2, 13], "includesElement__heat_of_formation": [147.1, 182.2], "includesElement__is_radioactive": [false], "includesElement__lattice_constant": [3.21, 3.46], "includesElement__mendeleev_number": [76, 85], "includesElement__molar_heat_capacity": [24.869, 26.32], "includesElement__period": [3, 6], "includesElement__pettifor_number": [73, 78], "includesElement__specific_heat_capacity": [1.023, 0.129], "includesElement__vdw_radius": [173.0, 196.0], "includesElement__vdw_radius_alvarez": [251.0, 247.0], "includesElement__vdw_radius_mm3": [243.0, 259.0], "includesElement__vdw_radius_uff": [302.1, 434.7], "includesElement__abundance_sea": [1290.0, 1.9e-05], "includesElement__c6_gb": [629.0, 509.0], "includesElement__covalent_radius_bragg": [142.0, 190.0], "includesElement__electronegativity_allen": [7.646], "includesElement__en_allen": [7.646], "includesElement__metallic_radius": [136.0, 144.0], "includesElement__metallic_radius_c12": [160.0], "includesElement__thermal_conductivity": [156.0, 46.1], "includesElement__vdw_radius_batsanov": [220.0], "includesElement__c6": [626.0], "includesElement__gas_basicity": [797.3], "includesElement__proton_affinity": [819.6], "includesElement__vdw_radius_bondi": [173.0, 196.0], "includesElement__electron_affinity": [0.377], "formula": ["Mg1Tl1"], "spacegroup": ["221"], "thermalConductivity": [0.238181], "icsd": ["104884"], "band_gap": [0.0], "density": [7.888159], "density_atomic": [24.07063], "deprecated": [false], "efermi": [5.462048], "energy_above_hull": [0.0], "energy_per_atom": [-2.01796], "formation_energy_per_atom": [-0.01698867], "homogeneous_poisson": [0.441], "is_gap_direct": [false], "is_magnetic": [false], "is_metal": [true], "is_stable": [true], "nelements": [2], "nsites": [2], "num_magnetic_sites": [0], "num_unique_magnetic_sites": [0], "theoretical": [false], "total_magnetization": [8.7e-06], "total_magnetization_normalized_formula_units": [8.7e-06], "total_magnetization_normalized_vol": [1.807182e-07], "uncorrected_energy_per_atom": [-28.70165], "universal_anisotropy": [6.68], "volume": [48.14125], "equilibrium_reaction_energy_per_atom": [-0.00766805]}