{"includesElement": ["", "Ni", "Sb", "Tb"], "includesElement___series_id": [8, 5, 9], "includesElement__abundance_crust": [84.0, 0.2, 1.2], "includesElement__atomic_number": [28, 51, 65], "includesElement__atomic_radius": [135.0, 145.0, 175.0], "includesElement__atomic_radius_rahm": [229.0, 246.0, 276.0], "includesElement__atomic_volume": [6.6, 18.4, 19.2], "includesElement__atomic_weight": [58.6934, 121.76, 158.9254], "includesElement__covalent_radius_cordero": [124.0, 139.0, 194.0], "includesElement__covalent_radius_pyykko": [110.0, 140.0, 168.0], "includesElement__covalent_radius_pyykko_double": [101.0, 133.0, 135.0], "includesElement__covalent_radius_pyykko_triple": [101.0, 127.0], "includesElement__density": [8.9, 6.68, 8.23], "includesElement__dipole_polarizability": [49.0, 43.0, 170.0], "includesElement__dipole_polarizability_unc": [3.0, 2.0, 20.0], "includesElement__discovery_year": [1751, 1843], "includesElement__electron_affinity": [1.156, 1.046, 1.165], "includesElement__electronegativity_allred-rochow": [0.0003347107, 0.0003214286, 0.0001009779], "includesElement__electronegativity_cottrell-sutton": [0.1918806, 0.212132, 0.130247], "includesElement__electronegativity_ghosh": [0.1472068, 0.1918774, 0.198863], "includesElement__electronegativity_gordy": [0.03681818, 0.045, 0.01696429], "includesElement__electronegativity_mulliken": [4.397939, 4.827195, 3.5144], "includesElement__electronegativity_nagle": [0.588755, 0.4880907, 0.4014652], "includesElement__electronegativity_pauling": [1.91, 2.05], "includesElement__electronegativity_sanderson": [0.937704, 0.7762722, 0.5163695], "includesElement__en_ghosh": [0.1472068, 0.1918774, 0.198863], "includesElement__en_pauling": [1.91, 2.05], "includesElement__evaporation_heat": [378.6, 195.2, 389.0], "includesElement__fusion_heat": [17.61, 20.08], "includesElement__glawe_number": [69, 91, 25], "includesElement__group_id": [10, 15], "includesElement__heat_of_formation": [430.1, 264.4, 388.7], "includesElement__is_radioactive": [false], "includesElement__lattice_constant": [3.52, 4.51, 3.6], "includesElement__mendeleev_number": [67, 96, 29], "includesElement__molar_heat_capacity": [26.07, 25.23, 28.91], "includesElement__period": [4, 5, 6], "includesElement__pettifor_number": [67, 88, 26], "includesElement__specific_heat_capacity": [0.444, 0.207, 0.182], "includesElement__vdw_radius": [197.0, 206.0, 233.0], "includesElement__vdw_radius_alvarez": [240.0, 247.0, 279.0], "includesElement__vdw_radius_mm3": [222.0, 252.0, 270.0], "includesElement__vdw_radius_uff": [283.4, 442.0, 345.1], "includesElement__abundance_sea": [0.00056, 0.00024, 1.4e-07], "includesElement__atomic_weight_uncertainty": [0.0004, 0.001, 2e-05], "includesElement__c6_gb": [393.0, 504.0, 2590.0], "includesElement__covalent_radius_bragg": [135.0, 140.0], "includesElement__electronegativity_allen": [11.13, 11.74], "includesElement__en_allen": [11.13, 11.74], "includesElement__metallic_radius": [115.0, 139.0], "includesElement__metallic_radius_c12": [124.0, 166.0], "includesElement__thermal_conductivity": [90.9, 24.43, 11.1], "includesElement__vdw_radius_batsanov": [200.0, 220.0], "includesElement__c6": [373.0, 492.0], "includesElement__gas_basicity": [714.1], "includesElement__proton_affinity": [737.0], "includesElement__vdw_radius_dreiding": [435.0], "includesElement__vdw_radius_truhlar": [206.0], "includesElement__is_monoisotopic": [true], "formula": ["Ni1Sb1Tb1", "TbNiSb"], "mp_id": ["3716"], "spacegroup": ["216"], "thermalConductivity": [8.36286, 9.06], "icsd": ["44951"], "band_gap": [0.331], "density": [8.872068], "density_atomic": [21.17326], "deprecated": [false], "efermi": [6.570623], "energy_above_hull": [0.0], "energy_per_atom": [-5.814376], "formation_energy_per_atom": [-0.9653757], "homogeneous_poisson": [0.244], "is_gap_direct": [false], "is_magnetic": [false], "is_metal": [false], "is_stable": [true], "nelements": [3], "nsites": [3], "num_magnetic_sites": [0], "num_unique_magnetic_sites": [0], "theoretical": [false], "total_magnetization": [0.0], "total_magnetization_normalized_formula_units": [0.0], "total_magnetization_normalized_vol": [0.0], "uncorrected_energy_per_atom": [-23.97416], "universal_anisotropy": [0.252], "volume": [63.51977], "cbm": [6.6968], "e_electronic": [18.85348], "e_ionic": [2.882213], "e_total": [21.73569], "equilibrium_reaction_energy_per_atom": [-0.1303825], "n": [4.342059], "vbm": [6.3658], "e_ij_max": [0.2853433]}