{"includesElement": ["", "Ca", "P", "Ir"], "includesElement___series_id": [4, 1, 8], "includesElement__abundance_crust": [41500.0, 1050.0, 0.001], "includesElement__atomic_number": [20, 15, 77], "includesElement__atomic_radius": [180.0, 100.0, 135.0], "includesElement__atomic_radius_rahm": [270.0, 223.0, 240.0], "includesElement__atomic_volume": [29.9, 17.0, 8.54], "includesElement__atomic_weight": [40.078, 30.97376, 192.217], "includesElement__covalent_radius_cordero": [176.0, 107.0, 141.0], "includesElement__covalent_radius_pyykko": [171.0, 111.0, 122.0], "includesElement__covalent_radius_pyykko_double": [147.0, 102.0, 115.0], "includesElement__covalent_radius_pyykko_triple": [133.0, 94.0, 107.0], "includesElement__density": [1.54, 1.823, 22.5622], "includesElement__dipole_polarizability": [160.8, 25.0, 54.0], "includesElement__dipole_polarizability_unc": [4.0, 1.0, 7.0], "includesElement__discovery_year": [1808, 1669, 1804], "includesElement__electron_affinity": [0.02455, 0.746607, 1.5638], "includesElement__electronegativity_allred-rochow": [9.746589e-05, 0.0003895788, 0.0002620263], "includesElement__electronegativity_cottrell-sutton": [0.1290994, 0.2079501, 0.1787938], "includesElement__electronegativity_ghosh": [0.1154119, 0.206931, 0.25106], "includesElement__electronegativity_gordy": [0.01666667, 0.04324324, 0.03196721], "includesElement__electronegativity_mulliken": [3.068853, 5.616646, 5.26541], "includesElement__electronegativity_nagle": [0.2316939, 0.5848035, 0.5503212], "includesElement__electronegativity_pauling": [1.0, 2.19, 2.2], "includesElement__electronegativity_sanderson": [0.1901577, 0.4510269, 1.475998], "includesElement__en_ghosh": [0.1154119, 0.206931, 0.25106], "includesElement__en_pauling": [1.0, 2.19, 2.2], "includesElement__evaporation_heat": [153.6, 49.8, 604.0], "includesElement__fusion_heat": [9.2, 2.51, 27.61], "includesElement__glawe_number": [16, 89, 62], "includesElement__group_id": [2, 15, 9], "includesElement__heat_of_formation": [177.8, 316.5, 669.0], "includesElement__is_radioactive": [false], "includesElement__lattice_constant": [5.58, 7.17, 3.84], "includesElement__mendeleev_number": [7, 94, 65], "includesElement__molar_heat_capacity": [25.929, 23.824, 25.1], "includesElement__period": [4, 3, 6], "includesElement__pettifor_number": [16, 90, 65], "includesElement__specific_heat_capacity": [0.647, 0.769, 0.131], "includesElement__vdw_radius": [231.0, 180.0, 213.0], "includesElement__vdw_radius_alvarez": [262.0, 190.0, 241.0], "includesElement__vdw_radius_mm3": [281.0, 222.0, 236.0], "includesElement__vdw_radius_uff": [339.9, 414.7, 284.0], "includesElement__abundance_sea": [412.0, 0.06], "includesElement__atomic_weight_uncertainty": [0.004, 5e-09, 0.003], "includesElement__c6_gb": [2230.0, 187.0, 522.0], "includesElement__covalent_radius_bragg": [170.0], "includesElement__electronegativity_allen": [6.113, 13.33, 9.96], "includesElement__en_allen": [6.113, 13.33, 9.96], "includesElement__metallic_radius": [174.0, 110.0, 127.0], "includesElement__metallic_radius_c12": [197.0, 128.0, 136.0], "includesElement__vdw_radius_batsanov": [240.0, 195.0, 200.0], "includesElement__c6": [2163.0, 185.0], "includesElement__vdw_radius_truhlar": [231.0], "includesElement__is_monoisotopic": [true], "includesElement__vdw_radius_dreiding": [415.0], "includesElement__gas_basicity": [604.8], "includesElement__proton_affinity": [626.8], "includesElement__vdw_radius_bondi": [180.0], "includesElement__thermal_conductivity": [147.0], "formula": ["Ca3Ir6P6"], "spacegroup": ["154"], "thermalConductivity": [2.61806], "icsd": ["95756"], "band_gap": [0.4943], "density": [9.022136], "density_atomic": [17.90674], "deprecated": [false], "efermi": [6.927879], "energy_above_hull": [0.0], "energy_per_atom": [-26.96942], "formation_energy_per_atom": [-1.017185], "is_gap_direct": [false], "is_magnetic": [false], "is_metal": [false], "is_stable": [true], "nelements": [3], "nsites": [15], "num_magnetic_sites": [0], "num_unique_magnetic_sites": [0], "theoretical": [false], "total_magnetization": [0.0], "total_magnetization_normalized_formula_units": [0.0], "total_magnetization_normalized_vol": [0.0], "uncorrected_energy_per_atom": [-26.96942], "volume": [268.601], "cbm": [7.3913], "e_electronic": [33.80654], "e_ionic": [17.61282], "e_total": [51.41936], "equilibrium_reaction_energy_per_atom": [-0.02721537], "n": [5.814339], "vbm": [6.897], "e_ij_max": [1.832185]}