{"includesElement": ["", "Al", "Nb", "Ru"], "includesElement___series_id": [7, 8], "includesElement__abundance_crust": [82300.0, 20.0, 0.001], "includesElement__atomic_number": [13, 41, 44], "includesElement__atomic_radius": [125.0, 145.0, 130.0], "includesElement__atomic_radius_rahm": [239.0, 251.0, 237.0], "includesElement__atomic_volume": [10.0, 10.8, 8.3], "includesElement__atomic_weight": [26.98154, 92.90637, 101.07], "includesElement__covalent_radius_cordero": [121.0, 164.0, 146.0], "includesElement__covalent_radius_pyykko": [126.0, 147.0, 125.0], "includesElement__covalent_radius_pyykko_double": [113.0, 125.0, 114.0], "includesElement__covalent_radius_pyykko_triple": [111.0, 116.0, 103.0], "includesElement__density": [2.7, 8.57, 12.1], "includesElement__dipole_polarizability": [57.8, 98.0, 72.0], "includesElement__dipole_polarizability_unc": [1.0, 8.0, 10.0], "includesElement__discovery_year": [1825, 1801, 1844], "includesElement__electron_affinity": [0.43283, 0.917406, 1.05], "includesElement__electronegativity_allred-rochow": [0.0002204586, 0.0001295756, 0.000208], "includesElement__electronegativity_cottrell-sutton": [0.1666667, 0.1380131, 0.1612452], "includesElement__electronegativity_ghosh": [0.150078, 0.1280782, 0.1376494], "includesElement__electronegativity_gordy": [0.02777778, 0.01904762, 0.026], "includesElement__electronegativity_mulliken": [3.209299, 3.838128, 4.20525], "includesElement__electronegativity_nagle": [0.3730192, 0.3708924, 0.4807499], "includesElement__electronegativity_pauling": [1.61, 1.6, 2.2], "includesElement__electronegativity_sanderson": [0.2360927, 0.5561695, 0.9579373], "includesElement__en_ghosh": [0.150078, 0.1280782, 0.1376494], "includesElement__en_pauling": [1.61, 1.6, 2.2], "includesElement__evaporation_heat": [284.1, 680.0], "includesElement__fusion_heat": [10.75, 26.8, 25.5], "includesElement__glawe_number": [78, 53, 61], "includesElement__group_id": [13, 5, 8], "includesElement__heat_of_formation": [330.9, 733.0, 650.6], "includesElement__is_radioactive": [false], "includesElement__lattice_constant": [4.05, 3.3, 2.7], "includesElement__mendeleev_number": [82, 48, 60], "includesElement__molar_heat_capacity": [24.2, 24.6, 24.06], "includesElement__period": [3, 5], "includesElement__pettifor_number": [80, 52, 63], "includesElement__specific_heat_capacity": [0.897, 0.265, 0.238], "includesElement__vdw_radius": [184.0, 218.0, 213.0], "includesElement__vdw_radius_alvarez": [225.0, 256.0, 246.0], "includesElement__vdw_radius_mm3": [236.0, 243.0, 234.0], "includesElement__vdw_radius_uff": [449.9, 316.5, 296.3], "includesElement__abundance_sea": [0.002, 1e-05, 7e-07], "includesElement__atomic_weight_uncertainty": [7e-07, 2e-05, 0.02], "includesElement__c6_gb": [520.0, 1140.0, 809.0], "includesElement__covalent_radius_bragg": [135.0], "includesElement__electronegativity_allen": [9.539, 8.34, 9.1], "includesElement__en_allen": [9.539, 8.34, 9.1], "includesElement__metallic_radius": [125.0, 134.0], "includesElement__metallic_radius_c12": [143.0, 146.0, 134.0], "includesElement__thermal_conductivity": [237.0, 53.7, 117.0], "includesElement__vdw_radius_batsanov": [210.0, 215.0, 205.0], "includesElement__c6": [528.0], "includesElement__is_monoisotopic": [true], "includesElement__vdw_radius_dreiding": [439.0], "includesElement__vdw_radius_truhlar": [184.0], "includesElement__gas_basicity": [751.4], "includesElement__proton_affinity": [774.0], "formula": ["Al1Nb1Ru2"], "spacegroup": ["225"], "thermalConductivity": [26.2293], "icsd": ["105524"], "band_gap": [0.0], "density": [9.090482], "density_atomic": [14.70604], "deprecated": [false], "efermi": [7.80246], "energy_above_hull": [0.0], "energy_per_atom": [-21.30223], "formation_energy_per_atom": [-0.7234192], "homogeneous_poisson": [0.283], "is_gap_direct": [false], "is_magnetic": [false], "is_metal": [true], "is_stable": [true], "nelements": [3], "nsites": [4], "num_magnetic_sites": [0], "num_unique_magnetic_sites": [0], "theoretical": [false], "total_magnetization": [2e-07], "total_magnetization_normalized_formula_units": [2e-07], "total_magnetization_normalized_vol": [3.399964e-09], "uncorrected_energy_per_atom": [-21.30223], "universal_anisotropy": [0.012], "volume": [58.82416], "equilibrium_reaction_energy_per_atom": [-0.2601427]}