{"includesElement": ["", "Ni", "In", "Dy"], "includesElement___series_id": [8, 7, 9], "includesElement__abundance_crust": [84.0, 0.25, 5.2], "includesElement__atomic_number": [28, 49, 66], "includesElement__atomic_radius": [135.0, 155.0, 175.0], "includesElement__atomic_radius_rahm": [229.0, 246.0, 275.0], "includesElement__atomic_volume": [6.6, 15.7, 19.0], "includesElement__atomic_weight": [58.6934, 114.818, 162.5], "includesElement__covalent_radius_cordero": [124.0, 142.0, 192.0], "includesElement__covalent_radius_pyykko": [110.0, 142.0, 167.0], "includesElement__covalent_radius_pyykko_double": [101.0, 136.0, 133.0], "includesElement__covalent_radius_pyykko_triple": [101.0, 146.0], "includesElement__density": [8.9, 7.31, 8.55], "includesElement__dipole_polarizability": [49.0, 65.0, 163.0], "includesElement__dipole_polarizability_unc": [3.0, 4.0, 15.0], "includesElement__discovery_year": [1751, 1863, 1886], "includesElement__electron_affinity": [1.156, 0.3, 0.352], "includesElement__electronegativity_allred-rochow": [0.0003347107, 0.0002479667, 0.0001021908], "includesElement__electronegativity_cottrell-sutton": [0.1918806, 0.1876467, 0.1306364], "includesElement__electronegativity_ghosh": [0.1472068, 0.16423, 0.20333], "includesElement__electronegativity_gordy": [0.03681818, 0.03521127, 0.01706587], "includesElement__electronegativity_mulliken": [4.397939, 3.043178, 3.145525], "includesElement__electronegativity_nagle": [0.588755, 0.3587038, 0.4191131], "includesElement__electronegativity_pauling": [1.91, 1.78, 1.22], "includesElement__electronegativity_sanderson": [0.937704, 0.7172747, 0.5297338], "includesElement__en_ghosh": [0.1472068, 0.16423, 0.20333], "includesElement__en_pauling": [1.91, 1.78, 1.22], "includesElement__evaporation_heat": [378.6, 225.1, 291.0], "includesElement__fusion_heat": [17.61, 3.24], "includesElement__glawe_number": [69, 80, 24], "includesElement__group_id": [10, 13], "includesElement__heat_of_formation": [430.1, 243.0, 290.4], "includesElement__is_radioactive": [false], "includesElement__lattice_constant": [3.52, 4.59, 3.59], "includesElement__mendeleev_number": [67, 84, 31], "includesElement__molar_heat_capacity": [26.07, 26.74, 28.16], "includesElement__period": [4, 5, 6], "includesElement__pettifor_number": [67, 79, 25], "includesElement__specific_heat_capacity": [0.444, 0.233, 0.173], "includesElement__vdw_radius": [197.0, 193.0, 231.0], "includesElement__vdw_radius_alvarez": [240.0, 243.0, 287.0], "includesElement__vdw_radius_mm3": [222.0, 264.0, 290.0], "includesElement__vdw_radius_uff": [283.4, 446.3, 342.8], "includesElement__abundance_sea": [0.00056, 0.02, 9.1e-07], "includesElement__atomic_weight_uncertainty": [0.0004, 0.001], "includesElement__c6_gb": [393.0, 643.0, 2430.0], "includesElement__covalent_radius_bragg": [135.0], "includesElement__electronegativity_allen": [11.13, 9.793], "includesElement__en_allen": [11.13, 9.793], "includesElement__metallic_radius": [115.0, 142.0], "includesElement__metallic_radius_c12": [124.0, 158.0], "includesElement__thermal_conductivity": [90.9, 81.8, 10.7], "includesElement__vdw_radius_batsanov": [200.0, 220.0], "includesElement__c6": [373.0, 779.0], "includesElement__gas_basicity": [714.1], "includesElement__proton_affinity": [737.0], "includesElement__vdw_radius_dreiding": [459.0], "includesElement__vdw_radius_bondi": [193.0], "formula": ["Dy3In3Ni3"], "spacegroup": ["189"], "thermalConductivity": [1.81335], "icsd": ["55846"], "band_gap": [0.0], "density": [9.376367], "density_atomic": [19.83569], "deprecated": [false], "efermi": [6.358672], "energy_above_hull": [0.0], "energy_per_atom": [-4.88004], "formation_energy_per_atom": [-0.4941449], "is_gap_direct": [false], "is_magnetic": [false], "is_metal": [true], "is_stable": [true], "nelements": [3], "nsites": [9], "num_magnetic_sites": [0], "num_unique_magnetic_sites": [0], "theoretical": [false], "total_magnetization": [5.1e-06], "total_magnetization_normalized_formula_units": [1.7e-06], "total_magnetization_normalized_vol": [2.856804e-08], "uncorrected_energy_per_atom": [-22.73826], "volume": [178.5212], "equilibrium_reaction_energy_per_atom": [-0.01514684]}