{"includesElement": ["", "Bi", "U"], "includesElement___series_id": [7, 10], "includesElement__abundance_crust": [0.0085, 2.7], "includesElement__atomic_number": [83, 92], "includesElement__atomic_radius": [160.0, 175.0], "includesElement__atomic_radius_rahm": [250.0, 283.0], "includesElement__atomic_volume": [21.3, 12.5], "includesElement__atomic_weight": [208.9804, 238.0289], "includesElement__covalent_radius_cordero": [148.0, 196.0], "includesElement__covalent_radius_pyykko": [151.0, 170.0], "includesElement__covalent_radius_pyykko_double": [141.0, 134.0], "includesElement__covalent_radius_pyykko_triple": [135.0, 118.0], "includesElement__density": [9.79, 19.1], "includesElement__dipole_polarizability": [48.0, 129.0], "includesElement__dipole_polarizability_unc": [4.0, 17.0], "includesElement__electron_affinity": [0.942362], "includesElement__electronegativity_allred-rochow": [0.0002763037, 0.0001038062], "includesElement__electronegativity_cottrell-sutton": [0.2042593, 0.1328422], "includesElement__electronegativity_ghosh": [0.182377, 0.13207], "includesElement__electronegativity_gordy": [0.04172185, 0.01764706], "includesElement__electronegativity_mulliken": [4.113939, 3.097025], "includesElement__electronegativity_nagle": [0.470518, 0.3596283], "includesElement__electronegativity_pauling": [1.9, 1.7], "includesElement__electronegativity_sanderson": [0.8136501, 0.618118], "includesElement__en_ghosh": [0.182377, 0.13207], "includesElement__en_pauling": [1.9, 1.7], "includesElement__evaporation_heat": [172.0, 417.0], "includesElement__fusion_heat": [11.0, 12.6], "includesElement__glawe_number": [92, 36], "includesElement__group_id": [15], "includesElement__heat_of_formation": [209.6, 533.0], "includesElement__is_radioactive": [false, true], "includesElement__lattice_constant": [4.75, 2.85], "includesElement__mendeleev_number": [97, 20], "includesElement__molar_heat_capacity": [25.52, 27.665], "includesElement__period": [6, 7], "includesElement__pettifor_number": [87, 45], "includesElement__specific_heat_capacity": [0.122, 0.116], "includesElement__vdw_radius": [207.0, 241.0], "includesElement__vdw_radius_alvarez": [254.0, 271.0], "includesElement__vdw_radius_mm3": [266.0, 252.0], "includesElement__vdw_radius_uff": [437.0, 339.5], "includesElement__abundance_sea": [2e-05, 0.0032], "includesElement__atomic_weight_uncertainty": [1e-05, 3e-05], "includesElement__c6_gb": [513.0], "includesElement__covalent_radius_bragg": [148.0], "includesElement__electronegativity_allen": [11.9], "includesElement__en_allen": [11.9], "includesElement__metallic_radius": [151.0], "includesElement__metallic_radius_c12": [178.0], "includesElement__thermal_conductivity": [7.9, 27.5], "includesElement__vdw_radius_batsanov": [230.0], "includesElement__is_monoisotopic": [true], "includesElement__vdw_radius_truhlar": [207.0], "includesElement__discovery_year": [1789], "includesElement__gas_basicity": [973.2], "includesElement__proton_affinity": [995.2], "formula": ["Bi1U1"], "spacegroup": ["225"], "thermalConductivity": [4.78268], "icsd": ["165126"], "band_gap": [0.0], "density": [11.52005], "density_atomic": [32.21672], "deprecated": [false], "efermi": [7.671355], "energy_above_hull": [0.1661932], "energy_per_atom": [-7.399756], "formation_energy_per_atom": [0.1661932], "homogeneous_poisson": [1.401], "is_gap_direct": [false], "is_magnetic": [true], "is_metal": [true], "is_stable": [false], "nelements": [2], "nsites": [2], "num_magnetic_sites": [1], "num_unique_magnetic_sites": [1], "theoretical": [false], "total_magnetization": [2.897934], "total_magnetization_normalized_formula_units": [2.897934], "total_magnetization_normalized_vol": [0.04497562], "uncorrected_energy_per_atom": [-7.399756], "universal_anisotropy": [0.019], "volume": [64.43343]}