{"includesElement": ["", "P", "Tc"], "includesElement___series_id": [1, 8], "includesElement__abundance_crust": [1050.0], "includesElement__atomic_number": [15, 43], "includesElement__atomic_radius": [100.0, 135.0], "includesElement__atomic_radius_rahm": [223.0, 252.0], "includesElement__atomic_volume": [17.0, 8.5], "includesElement__atomic_weight": [30.97376, 97.90721], "includesElement__covalent_radius_cordero": [107.0, 147.0], "includesElement__covalent_radius_pyykko": [111.0, 128.0], "includesElement__covalent_radius_pyykko_double": [102.0, 120.0], "includesElement__covalent_radius_pyykko_triple": [94.0, 110.0], "includesElement__density": [1.823, 11.0], "includesElement__dipole_polarizability": [25.0, 79.0], "includesElement__dipole_polarizability_unc": [1.0, 10.0], "includesElement__discovery_year": [1669, 1937], "includesElement__electron_affinity": [0.746607, 0.55], "includesElement__electronegativity_allred-rochow": [0.0003895788, 0.0002197266], "includesElement__electronegativity_cottrell-sutton": [0.2079501, 0.1677051], "includesElement__electronegativity_ghosh": [0.206931, 0.1344592], "includesElement__electronegativity_gordy": [0.04324324, 0.028125], "includesElement__electronegativity_mulliken": [5.616646, 3.83469], "includesElement__electronegativity_nagle": [0.5848035, 0.4458174], "includesElement__electronegativity_pauling": [2.19, 2.1], "includesElement__electronegativity_sanderson": [0.4510269, 0.8753613], "includesElement__en_ghosh": [0.206931, 0.1344592], "includesElement__en_pauling": [2.19, 2.1], "includesElement__evaporation_heat": [49.8, 585.0], "includesElement__fusion_heat": [2.51, 23.8], "includesElement__glawe_number": [89, 59], "includesElement__group_id": [15, 7], "includesElement__heat_of_formation": [316.5, 678.0], "includesElement__is_radioactive": [false, true], "includesElement__lattice_constant": [7.17, 2.74], "includesElement__mendeleev_number": [94, 56], "includesElement__molar_heat_capacity": [23.824], "includesElement__period": [3, 5], "includesElement__pettifor_number": [90, 58], "includesElement__specific_heat_capacity": [0.769], "includesElement__vdw_radius": [180.0, 216.0], "includesElement__vdw_radius_alvarez": [190.0, 244.0], "includesElement__vdw_radius_mm3": [222.0, 236.0], "includesElement__vdw_radius_uff": [414.7, 299.8], "includesElement__abundance_sea": [0.06], "includesElement__atomic_weight_uncertainty": [5e-09, 3e-05], "includesElement__c6_gb": [187.0, 939.0], "includesElement__electronegativity_allen": [13.33, 8.94], "includesElement__en_allen": [13.33, 8.94], "includesElement__metallic_radius": [110.0, 127.0], "includesElement__metallic_radius_c12": [128.0, 136.0], "includesElement__vdw_radius_batsanov": [195.0, 205.0], "includesElement__c6": [185.0], "includesElement__is_monoisotopic": [true], "includesElement__vdw_radius_dreiding": [415.0], "includesElement__gas_basicity": [604.8], "includesElement__proton_affinity": [626.8], "includesElement__vdw_radius_bondi": [180.0], "includesElement__thermal_conductivity": [50.6], "formula": ["P12Tc8"], "spacegroup": ["2"], "thermalConductivity": [9.21768], "icsd": ["41017"], "band_gap": [0.0], "density": [6.700395], "density_atomic": [14.3205], "deprecated": [false], "efermi": [9.20519], "energy_above_hull": [0.0], "energy_per_atom": [-16.37172], "formation_energy_per_atom": [-0.5846089], "homogeneous_poisson": [0.213], "is_gap_direct": [false], "is_magnetic": [false], "is_metal": [true], "is_stable": [true], "nelements": [2], "nsites": [10], "num_magnetic_sites": [0], "num_unique_magnetic_sites": [0], "theoretical": [false], "total_magnetization": [0.0], "total_magnetization_normalized_formula_units": [0.0], "total_magnetization_normalized_vol": [0.0], "uncorrected_energy_per_atom": [-16.37172], "universal_anisotropy": [0.306], "volume": [143.205], "equilibrium_reaction_energy_per_atom": [-0.1147369]}