{"includesElement": ["", "Ir", "Th"], "includesElement___series_id": [8, 10], "includesElement__abundance_crust": [0.001, 9.6], "includesElement__atomic_number": [77, 90], "includesElement__atomic_radius": [135.0, 180.0], "includesElement__atomic_radius_rahm": [240.0, 288.0], "includesElement__atomic_volume": [8.54, 19.8], "includesElement__atomic_weight": [192.217, 232.0377], "includesElement__covalent_radius_cordero": [141.0, 206.0], "includesElement__covalent_radius_pyykko": [122.0, 175.0], "includesElement__covalent_radius_pyykko_double": [115.0, 143.0], "includesElement__covalent_radius_pyykko_triple": [107.0, 136.0], "includesElement__density": [22.5622, 11.7], "includesElement__dipole_polarizability": [54.0, 217.0], "includesElement__dipole_polarizability_unc": [7.0, 54.0], "includesElement__discovery_year": [1804, 1828], "includesElement__electron_affinity": [1.5638], "includesElement__electronegativity_allred-rochow": [0.0002620263, 0.0001028571], "includesElement__electronegativity_cottrell-sutton": [0.1787938, 0.1341641], "includesElement__electronegativity_ghosh": [0.25106, 0.10277], "includesElement__electronegativity_gordy": [0.03196721, 0.018], "includesElement__electronegativity_mulliken": [5.26541, 3.15335], "includesElement__electronegativity_nagle": [0.5503212, 0.2641598], "includesElement__electronegativity_pauling": [2.2, 1.3], "includesElement__electronegativity_sanderson": [1.475998, 0.5557019], "includesElement__en_ghosh": [0.25106, 0.10277], "includesElement__en_pauling": [2.2, 1.3], "includesElement__evaporation_heat": [604.0, 513.7], "includesElement__fusion_heat": [27.61, 16.11], "includesElement__glawe_number": [62, 34], "includesElement__group_id": [9], "includesElement__heat_of_formation": [669.0, 602.0], "includesElement__is_radioactive": [false, true], "includesElement__lattice_constant": [3.84, 5.08], "includesElement__mendeleev_number": [65, 16], "includesElement__molar_heat_capacity": [25.1, 27.32], "includesElement__period": [6, 7], "includesElement__pettifor_number": [65, 47], "includesElement__specific_heat_capacity": [0.131, 0.118], "includesElement__vdw_radius": [213.0, 245.0], "includesElement__vdw_radius_alvarez": [241.0, 293.0], "includesElement__vdw_radius_mm3": [236.0, 274.0], "includesElement__vdw_radius_uff": [284.0, 339.6], "includesElement__atomic_weight_uncertainty": [0.003, 0.0004], "includesElement__c6_gb": [522.0], "includesElement__electronegativity_allen": [9.96], "includesElement__en_allen": [9.96], "includesElement__metallic_radius": [127.0], "includesElement__metallic_radius_c12": [136.0], "includesElement__thermal_conductivity": [147.0], "includesElement__vdw_radius_batsanov": [200.0, 240.0], "includesElement__abundance_sea": [1e-06], "formula": ["Ir6Th14"], "spacegroup": ["186"], "thermalConductivity": [1.34903], "icsd": ["150670"], "band_gap": [0.0], "density": [13.15827], "density_atomic": [27.775], "deprecated": [false], "efermi": [7.706001], "energy_above_hull": [0.0], "energy_per_atom": [-67.8692], "formation_energy_per_atom": [-0.7287115], "is_gap_direct": [false], "is_magnetic": [false], "is_metal": [true], "is_stable": [true], "nelements": [2], "nsites": [20], "num_magnetic_sites": [0], "num_unique_magnetic_sites": [0], "theoretical": [false], "total_magnetization": [7e-07], "total_magnetization_normalized_formula_units": [3.5e-07], "total_magnetization_normalized_vol": [1.260126e-09], "uncorrected_energy_per_atom": [-67.8692], "volume": [555.5], "equilibrium_reaction_energy_per_atom": [-0.05507881]}