{"includesElement": ["", "Bi", "O", "In"], "includesElement___series_id": [7, 1], "includesElement__abundance_crust": [0.0085, 461000.0, 0.25], "includesElement__atomic_number": [83, 8, 49], "includesElement__atomic_radius": [160.0, 60.0, 155.0], "includesElement__atomic_radius_rahm": [250.0, 171.0, 246.0], "includesElement__atomic_volume": [21.3, 14.0, 15.7], "includesElement__atomic_weight": [208.9804, 15.999, 114.818], "includesElement__covalent_radius_cordero": [148.0, 66.0, 142.0], "includesElement__covalent_radius_pyykko": [151.0, 63.0, 142.0], "includesElement__covalent_radius_pyykko_double": [141.0, 57.0, 136.0], "includesElement__covalent_radius_pyykko_triple": [135.0, 53.0, 146.0], "includesElement__density": [9.79, 0.001308, 7.31], "includesElement__dipole_polarizability": [48.0, 5.3, 65.0], "includesElement__dipole_polarizability_unc": [4.0, 0.2], "includesElement__electron_affinity": [0.942362, 1.461113, 0.3], "includesElement__electronegativity_allred-rochow": [0.0002763037, 0.001146384, 0.0002479667], "includesElement__electronegativity_cottrell-sutton": [0.2042593, 0.2687419, 0.1876467], "includesElement__electronegativity_ghosh": [0.182377, 0.304575, 0.16423], "includesElement__electronegativity_gordy": [0.04172185, 0.07222222, 0.03521127], "includesElement__electronegativity_mulliken": [4.113939, 7.539584, 3.043178], "includesElement__electronegativity_nagle": [0.470518, 1.042218, 0.3587038], "includesElement__electronegativity_pauling": [1.9, 3.44, 1.78], "includesElement__electronegativity_sanderson": [0.8136501, 0.9416494, 0.7172747], "includesElement__en_ghosh": [0.182377, 0.304575, 0.16423], "includesElement__en_pauling": [1.9, 3.44, 1.78], "includesElement__evaporation_heat": [172.0, 225.1], "includesElement__fusion_heat": [11.0, 3.24], "includesElement__glawe_number": [92, 97, 80], "includesElement__group_id": [15, 16, 13], "includesElement__heat_of_formation": [209.6, 249.229, 243.0], "includesElement__is_radioactive": [false], "includesElement__lattice_constant": [4.75, 6.83, 4.59], "includesElement__mendeleev_number": [97, 99, 84], "includesElement__molar_heat_capacity": [25.52, 29.378, 26.74], "includesElement__period": [6, 2, 5], "includesElement__pettifor_number": [87, 101, 79], "includesElement__specific_heat_capacity": [0.122, 0.918, 0.233], "includesElement__vdw_radius": [207.0, 152.0, 193.0], "includesElement__vdw_radius_alvarez": [254.0, 150.0, 243.0], "includesElement__vdw_radius_mm3": [266.0, 182.0, 264.0], "includesElement__vdw_radius_uff": [437.0, 350.0, 446.3], "includesElement__abundance_sea": [2e-05, 857000.0, 0.02], "includesElement__atomic_weight_uncertainty": [1e-05, 0.001], "includesElement__c6_gb": [513.0, 16.7, 643.0], "includesElement__covalent_radius_bragg": [148.0, 65.0], "includesElement__electronegativity_allen": [11.9, 21.36, 9.793], "includesElement__en_allen": [11.9, 21.36, 9.793], "includesElement__metallic_radius": [151.0, 142.0], "includesElement__metallic_radius_c12": [178.0, 158.0], "includesElement__thermal_conductivity": [7.9, 0.027, 81.8], "includesElement__vdw_radius_batsanov": [230.0, 155.0, 220.0], "includesElement__is_monoisotopic": [true], "includesElement__vdw_radius_truhlar": [207.0], "includesElement__discovery_year": [1774, 1863], "includesElement__c6": [15.6, 779.0], "includesElement__vdw_radius_dreiding": [340.46, 459.0], "includesElement__gas_basicity": [459.6], "includesElement__proton_affinity": [485.2], "includesElement__vdw_radius_bondi": [152.0, 193.0], "includesElement__vdw_radius_rt": [158.0], "formula": ["Bi4In4O12"], "spacegroup": ["33"], "thermalConductivity": [2.96868], "icsd": ["171756"], "band_gap": [2.7352], "density": [8.484177], "density_atomic": [14.55375], "deprecated": [false], "efermi": [5.509203], "energy_above_hull": [0.02894308], "energy_per_atom": [-6.087572], "formation_energy_per_atom": [-1.796282], "is_gap_direct": [false], "is_magnetic": [false], "is_metal": [false], "is_stable": [false], "nelements": [3], "nsites": [20], "num_magnetic_sites": [0], "num_unique_magnetic_sites": [0], "theoretical": [false], "total_magnetization": [0.0003956], "total_magnetization_normalized_formula_units": [9.89e-05], "total_magnetization_normalized_vol": [1.3591e-06], "uncorrected_energy_per_atom": [-5.675372], "volume": [291.0749], "cbm": [8.1081], "vbm": [5.3729]}