{"includesElement": ["", "Ca", "Sn", "F"], "includesElement___series_id": [4, 7, 6], "includesElement__abundance_crust": [41500.0, 2.3, 585.0], "includesElement__atomic_number": [20, 50, 9], "includesElement__atomic_radius": [180.0, 145.0, 50.0], "includesElement__atomic_radius_rahm": [270.0, 248.0, 163.0], "includesElement__atomic_volume": [29.9, 16.3, 17.1], "includesElement__atomic_weight": [40.078, 118.71, 18.9984], "includesElement__covalent_radius_cordero": [176.0, 139.0, 57.0], "includesElement__covalent_radius_pyykko": [171.0, 140.0, 64.0], "includesElement__covalent_radius_pyykko_double": [147.0, 130.0, 59.0], "includesElement__covalent_radius_pyykko_triple": [133.0, 132.0, 53.0], "includesElement__density": [1.54, 7.287, 0.001553], "includesElement__dipole_polarizability": [160.8, 53.0, 3.74], "includesElement__dipole_polarizability_unc": [4.0, 6.0, 0.08], "includesElement__discovery_year": [1808, 1886], "includesElement__electron_affinity": [0.02455, 1.112067, 3.40119], "includesElement__electronegativity_allred-rochow": [9.746589e-05, 0.0002882653, 0.001269531], "includesElement__electronegativity_cottrell-sutton": [0.1290994, 0.2008909, 0.2850439], "includesElement__electronegativity_ghosh": [0.1154119, 0.178052, 0.344443], "includesElement__electronegativity_gordy": [0.01666667, 0.04035714, 0.08125], "includesElement__electronegativity_mulliken": [3.068853, 4.227992, 10.412], "includesElement__electronegativity_nagle": [0.2316939, 0.4225986, 1.232373], "includesElement__electronegativity_pauling": [1.0, 1.96, 3.98], "includesElement__electronegativity_sanderson": [0.1901577, 0.7622797, 1.017681], "includesElement__en_ghosh": [0.1154119, 0.178052, 0.344443], "includesElement__en_pauling": [1.0, 1.96, 3.98], "includesElement__evaporation_heat": [153.6, 296.0, 6.54], "includesElement__fusion_heat": [9.2, 7.07, 0.51], "includesElement__glawe_number": [16, 83, 102], "includesElement__group_id": [2, 14, 17], "includesElement__heat_of_formation": [177.8, 301.2, 79.335], "includesElement__is_radioactive": [false], "includesElement__lattice_constant": [5.58, 5.82], "includesElement__mendeleev_number": [7, 90, 106], "includesElement__molar_heat_capacity": [25.929, 26.99, 31.304], "includesElement__period": [4, 5, 2], "includesElement__pettifor_number": [16, 83, 102], "includesElement__specific_heat_capacity": [0.647, 0.227, 0.824], "includesElement__vdw_radius": [231.0, 217.0, 147.0], "includesElement__vdw_radius_alvarez": [262.0, 242.0, 146.0], "includesElement__vdw_radius_mm3": [281.0, 259.0, 171.0], "includesElement__vdw_radius_uff": [339.9, 439.2, 336.4], "includesElement__abundance_sea": [412.0, 4e-06, 1.3], "includesElement__atomic_weight_uncertainty": [0.004, 0.007, 6e-09], "includesElement__c6_gb": [2230.0, 715.0, 10.2], "includesElement__covalent_radius_bragg": [170.0, 140.0, 67.0], "includesElement__electronegativity_allen": [6.113, 10.79, 24.8], "includesElement__en_allen": [6.113, 10.79, 24.8], "includesElement__metallic_radius": [174.0, 142.0], "includesElement__metallic_radius_c12": [197.0, 163.0], "includesElement__vdw_radius_batsanov": [240.0, 225.0, 150.0], "includesElement__c6": [2163.0, 659.0, 9.52], "includesElement__vdw_radius_truhlar": [231.0], "includesElement__thermal_conductivity": [66.8, 0.028], "includesElement__vdw_radius_dreiding": [447.0, 347.2], "includesElement__vdw_radius_bondi": [217.0, 147.0], "includesElement__is_monoisotopic": [true], "includesElement__gas_basicity": [315.1], "includesElement__proton_affinity": [340.1], "includesElement__vdw_radius_rt": [146.0], "formula": ["Ca1F6Sn1"], "spacegroup": ["225"], "thermalConductivity": [2.92353], "icsd": ["35713"], "band_gap": [5.3881], "density": [3.015947], "density_atomic": [18.77351], "deprecated": [false], "efermi": [-3.40243], "energy_above_hull": [0.001296619], "energy_per_atom": [-5.588829], "formation_energy_per_atom": [-3.403323], "homogeneous_poisson": [0.322], "is_gap_direct": [true], "is_magnetic": [false], "is_metal": [false], "is_stable": [false], "nelements": [3], "nsites": [8], "num_magnetic_sites": [0], "num_unique_magnetic_sites": [0], "theoretical": [false], "total_magnetization": [0.0], "total_magnetization_normalized_formula_units": [0.0], "total_magnetization_normalized_vol": [0.0], "uncorrected_energy_per_atom": [-9.596506], "universal_anisotropy": [6.69], "volume": [150.1881], "cbm": [1.8639], "e_electronic": [1.890852], "e_ionic": [2.904467], "e_total": [4.795319], "n": [1.375083], "vbm": [-3.5242]}