{"includesElement": ["", "P", "Ba", "Ir"], "includesElement___series_id": [1, 4, 8], "includesElement__abundance_crust": [1050.0, 425.0, 0.001], "includesElement__atomic_number": [15, 56, 77], "includesElement__atomic_radius": [100.0, 215.0, 135.0], "includesElement__atomic_radius_rahm": [223.0, 293.0, 240.0], "includesElement__atomic_volume": [17.0, 39.0, 8.54], "includesElement__atomic_weight": [30.97376, 137.327, 192.217], "includesElement__covalent_radius_cordero": [107.0, 215.0, 141.0], "includesElement__covalent_radius_pyykko": [111.0, 196.0, 122.0], "includesElement__covalent_radius_pyykko_double": [102.0, 161.0, 115.0], "includesElement__covalent_radius_pyykko_triple": [94.0, 149.0, 107.0], "includesElement__density": [1.823, 3.62, 22.5622], "includesElement__dipole_polarizability": [25.0, 272.0, 54.0], "includesElement__dipole_polarizability_unc": [1.0, 10.0, 7.0], "includesElement__discovery_year": [1669, 1808, 1804], "includesElement__electron_affinity": [0.746607, 0.14462, 1.5638], "includesElement__electronegativity_allred-rochow": [0.0003895788, 7.418784e-05, 0.0002620263], "includesElement__electronegativity_cottrell-sutton": [0.2079501, 0.1205853, 0.1787938], "includesElement__electronegativity_ghosh": [0.206931, 0.1586786, 0.25106], "includesElement__electronegativity_gordy": [0.04324324, 0.01454082, 0.03196721], "includesElement__electronegativity_mulliken": [5.616646, 2.678142, 5.26541], "includesElement__electronegativity_nagle": [0.5848035, 0.1944556, 0.5503212], "includesElement__electronegativity_pauling": [2.19, 0.89, 2.2], "includesElement__electronegativity_sanderson": [0.4510269, 0.3032951, 1.475998], "includesElement__en_ghosh": [0.206931, 0.1586786, 0.25106], "includesElement__en_pauling": [2.19, 0.89, 2.2], "includesElement__evaporation_heat": [49.8, 142.0, 604.0], "includesElement__fusion_heat": [2.51, 7.66, 27.61], "includesElement__glawe_number": [89, 14, 62], "includesElement__group_id": [15, 2, 9], "includesElement__heat_of_formation": [316.5, 179.1, 669.0], "includesElement__is_radioactive": [false], "includesElement__lattice_constant": [7.17, 5.02, 3.84], "includesElement__mendeleev_number": [94, 9, 65], "includesElement__molar_heat_capacity": [23.824, 28.07, 25.1], "includesElement__period": [3, 6], "includesElement__pettifor_number": [90, 14, 65], "includesElement__specific_heat_capacity": [0.769, 0.204, 0.131], "includesElement__vdw_radius": [180.0, 268.0, 213.0], "includesElement__vdw_radius_alvarez": [190.0, 303.0, 241.0], "includesElement__vdw_radius_mm3": [222.0, 307.0, 236.0], "includesElement__vdw_radius_uff": [414.7, 370.3, 284.0], "includesElement__abundance_sea": [0.06, 0.013], "includesElement__atomic_weight_uncertainty": [5e-09, 0.007, 0.003], "includesElement__c6_gb": [187.0, 5540.0, 522.0], "includesElement__electronegativity_allen": [13.33, 5.211, 9.96], "includesElement__en_allen": [13.33, 5.211, 9.96], "includesElement__metallic_radius": [110.0, 198.0, 127.0], "includesElement__metallic_radius_c12": [128.0, 222.0, 136.0], "includesElement__vdw_radius_batsanov": [195.0, 270.0, 200.0], "includesElement__c6": [185.0], "includesElement__is_monoisotopic": [true], "includesElement__vdw_radius_dreiding": [415.0], "includesElement__gas_basicity": [604.8], "includesElement__proton_affinity": [626.8], "includesElement__vdw_radius_bondi": [180.0], "includesElement__covalent_radius_bragg": [210.0], "includesElement__vdw_radius_truhlar": [268.0], "includesElement__thermal_conductivity": [147.0], "formula": ["Ba1Ir2P2"], "spacegroup": ["139"], "thermalConductivity": [8.13818], "icsd": ["95757"], "band_gap": [0.0], "density": [9.616446], "density_atomic": [20.15861], "deprecated": [false], "efermi": [6.875045], "energy_above_hull": [0.0], "energy_per_atom": [-6.930993], "formation_energy_per_atom": [-0.8456353], "homogeneous_poisson": [0.284], "is_gap_direct": [false], "is_magnetic": [false], "is_metal": [true], "is_stable": [true], "nelements": [3], "nsites": [5], "num_magnetic_sites": [0], "num_unique_magnetic_sites": [0], "theoretical": [false], "total_magnetization": [2e-07], "total_magnetization_normalized_formula_units": [2e-07], "total_magnetization_normalized_vol": [1.984264e-09], "uncorrected_energy_per_atom": [-30.78544], "universal_anisotropy": [2.153], "volume": [100.793], "equilibrium_reaction_energy_per_atom": [-0.06961139]}