{"includesElement": ["", "Au", "Rb"], "includesElement___series_id": [8, 3], "includesElement__abundance_crust": [0.004, 90.0], "includesElement__atomic_number": [79, 37], "includesElement__atomic_radius": [135.0, 235.0], "includesElement__atomic_radius_rahm": [226.0, 240.0], "includesElement__atomic_volume": [10.2, 55.9], "includesElement__atomic_weight": [196.9666, 85.4678], "includesElement__covalent_radius_cordero": [136.0, 220.0], "includesElement__covalent_radius_pyykko": [124.0, 210.0], "includesElement__covalent_radius_pyykko_double": [121.0, 202.0], "includesElement__covalent_radius_pyykko_triple": [123.0], "includesElement__density": [19.3, 1.53], "includesElement__dipole_polarizability": [36.0, 319.8], "includesElement__dipole_polarizability_unc": [3.0, 0.3], "includesElement__electron_affinity": [2.30863, 0.48592], "includesElement__electronegativity_allred-rochow": [0.0002406348, 4.988662e-05], "includesElement__electronegativity_cottrell-sutton": [0.1727388, 0.1023533], "includesElement__electronegativity_ghosh": [0.26137, 0.104686], "includesElement__electronegativity_gordy": [0.02983871, 0.01047619], "includesElement__electronegativity_mulliken": [5.767091, 2.331524], "includesElement__electronegativity_nagle": [0.67354, 0.1462314], "includesElement__electronegativity_pauling": [2.4, 0.82], "includesElement__electronegativity_sanderson": [1.426701, 0.1764136], "includesElement__en_ghosh": [0.26137, 0.104686], "includesElement__en_pauling": [2.4, 0.82], "includesElement__evaporation_heat": [340.0, 75.8], "includesElement__fusion_heat": [12.68, 2.2], "includesElement__glawe_number": [66, 9], "includesElement__group_id": [11, 1], "includesElement__heat_of_formation": [368.2, 80.9], "includesElement__is_radioactive": [false], "includesElement__lattice_constant": [4.08, 5.59], "includesElement__mendeleev_number": [73, 4], "includesElement__molar_heat_capacity": [25.418, 31.06], "includesElement__period": [6, 5], "includesElement__pettifor_number": [70, 9], "includesElement__specific_heat_capacity": [0.129, 0.363], "includesElement__vdw_radius": [214.0, 303.0], "includesElement__vdw_radius_alvarez": [232.0, 321.0], "includesElement__vdw_radius_mm3": [243.0, 325.0], "includesElement__vdw_radius_uff": [329.3, 411.4], "includesElement__abundance_sea": [4e-06, 0.12], "includesElement__atomic_weight_uncertainty": [5e-06, 0.0003], "includesElement__c6_gb": [427.0, 4660.0], "includesElement__electronegativity_allen": [11.33, 4.177], "includesElement__en_allen": [11.33, 4.177], "includesElement__metallic_radius": [134.0, 216.0], "includesElement__metallic_radius_c12": [144.0, 248.0], "includesElement__thermal_conductivity": [318.0, 58.2], "includesElement__vdw_radius_batsanov": [210.0, 290.0], "includesElement__is_monoisotopic": [true], "includesElement__discovery_year": [1861], "includesElement__covalent_radius_bragg": [225.0], "includesElement__c6": [4769.0], "includesElement__vdw_radius_truhlar": [303.0], "formula": ["Au3Rb2"], "spacegroup": ["71"], "thermalConductivity": [0.486594], "icsd": ["106288"], "band_gap": [0.0], "density": [8.679812], "density_atomic": [29.14942], "deprecated": [false], "efermi": [2.515141], "energy_above_hull": [0.0], "energy_per_atom": [-2.655182], "formation_energy_per_atom": [-0.2986391], "is_gap_direct": [false], "is_magnetic": [false], "is_metal": [true], "is_stable": [true], "nelements": [2], "nsites": [5], "num_magnetic_sites": [0], "num_unique_magnetic_sites": [0], "theoretical": [false], "total_magnetization": [1e-06], "total_magnetization_normalized_formula_units": [1e-06], "total_magnetization_normalized_vol": [6.861201e-09], "uncorrected_energy_per_atom": [-36.26693], "volume": [145.7471], "equilibrium_reaction_energy_per_atom": [-0.02349795]}