{"includesElement": ["", "Cd", "Al", "Te"], "includesElement___series_id": [8, 7, 5], "includesElement__abundance_crust": [0.15, 82300.0, 0.001], "includesElement__atomic_number": [48, 13, 52], "includesElement__atomic_radius": [155.0, 125.0, 140.0], "includesElement__atomic_radius_rahm": [238.0, 239.0, 242.0], "includesElement__atomic_volume": [13.1, 10.0, 20.5], "includesElement__atomic_weight": [112.414, 26.98154, 127.6], "includesElement__covalent_radius_cordero": [144.0, 121.0, 138.0], "includesElement__covalent_radius_pyykko": [136.0, 126.0], "includesElement__covalent_radius_pyykko_double": [144.0, 113.0, 128.0], "includesElement__density": [8.69, 2.7, 6.232], "includesElement__dipole_polarizability": [46.0, 57.8, 38.0], "includesElement__dipole_polarizability_unc": [2.0, 1.0, 4.0], "includesElement__discovery_year": [1817, 1825, 1782], "includesElement__electronegativity_allred-rochow": [0.000235186, 0.0002204586, 0.0003757569], "includesElement__electronegativity_cottrell-sutton": [0.1788443, 0.1666667, 0.2260596], "includesElement__electronegativity_ghosh": [0.1504066, 0.150078, 0.2056992], "includesElement__electronegativity_gordy": [0.03198529, 0.02777778, 0.05110294], "includesElement__electronegativity_mulliken": [4.496911, 3.209299, 5.490268], "includesElement__electronegativity_nagle": [0.6389612, 0.3730192, 0.5404919], "includesElement__electronegativity_pauling": [1.69, 1.61, 2.1], "includesElement__electronegativity_sanderson": [0.801562, 0.2360927, 0.8622506], "includesElement__en_ghosh": [0.1504066, 0.150078, 0.2056992], "includesElement__en_pauling": [1.69, 1.61, 2.1], "includesElement__evaporation_heat": [59.1, 284.1, 49.8], "includesElement__fusion_heat": [6.11, 10.75, 17.91], "includesElement__glawe_number": [75, 78, 94], "includesElement__group_id": [12, 13, 16], "includesElement__heat_of_formation": [111.8, 330.9, 196.6], "includesElement__is_radioactive": [false], "includesElement__lattice_constant": [2.98, 4.05, 4.45], "includesElement__mendeleev_number": [78, 82, 102], "includesElement__molar_heat_capacity": [26.02, 24.2, 25.73], "includesElement__period": [5, 3], "includesElement__pettifor_number": [75, 80, 92], "includesElement__specific_heat_capacity": [0.232, 0.897, 0.202], "includesElement__vdw_radius": [218.0, 184.0, 206.0], "includesElement__vdw_radius_alvarez": [249.0, 225.0, 199.0], "includesElement__vdw_radius_mm3": [250.0, 236.0, 244.0], "includesElement__vdw_radius_uff": [284.8, 449.9, 447.0], "includesElement__abundance_sea": [0.00011, 0.002], "includesElement__atomic_weight_uncertainty": [0.004, 7e-07, 0.03], "includesElement__c6_gb": [405.0, 520.0, 471.0], "includesElement__covalent_radius_bragg": [160.0, 135.0, 133.0], "includesElement__electronegativity_allen": [8.995, 9.539, 12.76], "includesElement__en_allen": [8.995, 9.539, 12.76], "includesElement__metallic_radius": [138.0, 125.0, 137.0], "includesElement__metallic_radius_c12": [151.0, 143.0, 160.0], "includesElement__thermal_conductivity": [96.9, 237.0, 14.3], "includesElement__vdw_radius_batsanov": [220.0, 210.0], "includesElement__covalent_radius_pyykko_triple": [111.0, 121.0], "includesElement__electron_affinity": [0.43283, 1.970876], "includesElement__c6": [528.0, 445.0], "includesElement__is_monoisotopic": [true], "includesElement__vdw_radius_dreiding": [439.0, 423.0], "includesElement__vdw_radius_truhlar": [184.0], "includesElement__vdw_radius_bondi": [206.0], "formula": ["Al2Cd1Te4"], "spacegroup": ["82"], "thermalConductivity": [2.2933], "icsd": ["25640"], "band_gap": [1.6245], "density": [4.851529], "density_atomic": [33.09148], "deprecated": [false], "efermi": [3.050266], "energy_above_hull": [0.0], "energy_per_atom": [-19.90184], "formation_energy_per_atom": [-0.5821135], "homogeneous_poisson": [0.242], "is_gap_direct": [true], "is_magnetic": [false], "is_metal": [false], "is_stable": [true], "nelements": [3], "nsites": [7], "num_magnetic_sites": [0], "num_unique_magnetic_sites": [0], "theoretical": [false], "total_magnetization": [0.0], "total_magnetization_normalized_formula_units": [0.0], "total_magnetization_normalized_vol": [0.0], "uncorrected_energy_per_atom": [-19.90184], "universal_anisotropy": [0.809], "volume": [231.6403], "cbm": [4.6619], "e_electronic": [7.983095], "e_ionic": [2.735368], "e_total": [10.71846], "equilibrium_reaction_energy_per_atom": [-0.02259866], "n": [2.825437], "vbm": [3.0374], "e_ij_max": [0.08677991]}