{"includesElement": ["", "Co", "W", "B"], "includesElement___series_id": [8, 5], "includesElement__abundance_crust": [25.0, 1.25, 10.0], "includesElement__atomic_number": [27, 74, 5], "includesElement__atomic_radius": [135.0, 85.0], "includesElement__atomic_radius_rahm": [233.0, 253.0, 205.0], "includesElement__atomic_volume": [6.7, 9.53, 4.6], "includesElement__atomic_weight": [58.93319, 183.84, 10.81], "includesElement__covalent_radius_cordero": [138.0, 162.0, 84.0], "includesElement__covalent_radius_pyykko": [111.0, 137.0, 85.0], "includesElement__covalent_radius_pyykko_double": [103.0, 120.0, 78.0], "includesElement__covalent_radius_pyykko_triple": [96.0, 115.0, 73.0], "includesElement__density": [8.86, 19.3, 2.34], "includesElement__dipole_polarizability": [55.0, 68.0, 20.5], "includesElement__dipole_polarizability_unc": [4.0, 15.0, 0.1], "includesElement__discovery_year": [1739, 1783, 1808], "includesElement__electron_affinity": [0.6622565, 0.81626, 0.279723], "includesElement__electronegativity_allred-rochow": [0.0003165327, 0.0001838137, 0.0003598616], "includesElement__electronegativity_cottrell-sutton": [0.1874437, 0.1586899, 0.1748949], "includesElement__electronegativity_ghosh": [0.1432363, 0.2390504, 0.184886], "includesElement__electronegativity_gordy": [0.03513514, 0.02518248, 0.03058824], "includesElement__electronegativity_mulliken": [4.271633, 4.340145, 4.288871], "includesElement__electronegativity_nagle": [0.5469655, 0.4451921, 0.5269739], "includesElement__electronegativity_pauling": [1.88, 1.7, 2.04], "includesElement__electronegativity_sanderson": [0.8832424, 1.019283, 0.2546274], "includesElement__en_ghosh": [0.1432363, 0.2390504, 0.184886], "includesElement__en_pauling": [1.88, 1.7, 2.04], "includesElement__evaporation_heat": [389.1, 824.0, 504.5], "includesElement__fusion_heat": [15.48, 35.0, 23.6], "includesElement__glawe_number": [70, 57, 86], "includesElement__group_id": [9, 6, 13], "includesElement__heat_of_formation": [426.7, 851.0, 565.0], "includesElement__is_radioactive": [false], "includesElement__lattice_constant": [2.51, 3.16, 8.73], "includesElement__mendeleev_number": [63, 53, 81], "includesElement__molar_heat_capacity": [24.81, 24.27, 11.087], "includesElement__period": [4, 6, 2], "includesElement__pettifor_number": [64, 56, 86], "includesElement__specific_heat_capacity": [0.421, 0.132, 1.026], "includesElement__vdw_radius": [200.0, 218.0, 192.0], "includesElement__vdw_radius_alvarez": [240.0, 257.0, 191.0], "includesElement__vdw_radius_mm3": [223.0, 239.0, 215.0], "includesElement__vdw_radius_uff": [287.2, 309.6, 408.3], "includesElement__abundance_sea": [2e-05, 0.0001, 4.44], "includesElement__atomic_weight_uncertainty": [4e-06, 0.01], "includesElement__c6_gb": [461.0, 757.0, 99.2], "includesElement__covalent_radius_bragg": [137.0], "includesElement__electronegativity_allen": [10.86, 8.67, 12.13], "includesElement__en_allen": [10.86, 8.67, 12.13], "includesElement__metallic_radius": [116.0, 130.0, 80.0], "includesElement__metallic_radius_c12": [125.0, 139.0, 98.0], "includesElement__thermal_conductivity": [100.0, 173.0, 27.4], "includesElement__vdw_radius_batsanov": [200.0, 210.0, 180.0], "includesElement__c6": [408.0, 99.5], "includesElement__is_monoisotopic": [true], "includesElement__gas_basicity": [719.8], "includesElement__proton_affinity": [742.7], "includesElement__vdw_radius_dreiding": [402.0], "includesElement__vdw_radius_truhlar": [192.0], "formula": ["B4Co4W4"], "spacegroup": ["62"], "thermalConductivity": [15.9685], "icsd": ["613388"], "band_gap": [0.0], "density": [13.89574], "density_atomic": [10.10109], "deprecated": [false], "efermi": [7.597064], "energy_above_hull": [0.0], "energy_per_atom": [-24.34635], "formation_energy_per_atom": [-0.3635584], "homogeneous_poisson": [0.25], "is_gap_direct": [false], "is_magnetic": [false], "is_metal": [true], "is_stable": [true], "nelements": [3], "nsites": [12], "num_magnetic_sites": [0], "num_unique_magnetic_sites": [0], "theoretical": [false], "total_magnetization": [4e-07], "total_magnetization_normalized_formula_units": [1e-07], "total_magnetization_normalized_vol": [3.299974e-09], "uncorrected_energy_per_atom": [-24.34635], "universal_anisotropy": [0.217], "volume": [121.2131], "equilibrium_reaction_energy_per_atom": [-0.017966]}