{"includesElement": ["", "Ni", "O", "Ta"], "includesElement___series_id": [8, 1], "includesElement__abundance_crust": [84.0, 461000.0, 2.0], "includesElement__atomic_number": [28, 8, 73], "includesElement__atomic_radius": [135.0, 60.0, 145.0], "includesElement__atomic_radius_rahm": [229.0, 171.0, 258.0], "includesElement__atomic_volume": [6.6, 14.0, 10.9], "includesElement__atomic_weight": [58.6934, 15.999, 180.9479], "includesElement__covalent_radius_cordero": [124.0, 66.0, 170.0], "includesElement__covalent_radius_pyykko": [110.0, 63.0, 146.0], "includesElement__covalent_radius_pyykko_double": [101.0, 57.0, 126.0], "includesElement__covalent_radius_pyykko_triple": [101.0, 53.0, 119.0], "includesElement__density": [8.9, 0.001308, 16.4], "includesElement__dipole_polarizability": [49.0, 5.3, 74.0], "includesElement__dipole_polarizability_unc": [3.0, 0.2, 20.0], "includesElement__discovery_year": [1751, 1774, 1802], "includesElement__electron_affinity": [1.156, 1.461113, 0.322], "includesElement__electronegativity_allred-rochow": [0.0003347107, 0.001146384, 0.0001548133], "includesElement__electronegativity_cottrell-sutton": [0.1918806, 0.2687419, 0.1503421], "includesElement__electronegativity_ghosh": [0.1472068, 0.304575, 0.234581], "includesElement__electronegativity_gordy": [0.03681818, 0.07222222, 0.02260274], "includesElement__electronegativity_mulliken": [4.397939, 7.539584, 3.935785], "includesElement__electronegativity_nagle": [0.588755, 1.042218, 0.4072985], "includesElement__electronegativity_pauling": [1.91, 3.44, 1.5], "includesElement__electronegativity_sanderson": [0.937704, 0.9416494, 0.8358832], "includesElement__en_ghosh": [0.1472068, 0.304575, 0.234581], "includesElement__en_pauling": [1.91, 3.44, 1.5], "includesElement__evaporation_heat": [378.6, 758.0], "includesElement__fusion_heat": [17.61, 24.7], "includesElement__glawe_number": [69, 97, 52], "includesElement__group_id": [10, 16, 5], "includesElement__heat_of_formation": [430.1, 249.229, 782.0], "includesElement__is_radioactive": [false], "includesElement__lattice_constant": [3.52, 6.83, 3.31], "includesElement__mendeleev_number": [67, 99, 49], "includesElement__molar_heat_capacity": [26.07, 29.378, 25.36], "includesElement__period": [4, 2, 6], "includesElement__pettifor_number": [67, 101, 53], "includesElement__specific_heat_capacity": [0.444, 0.918, 0.14], "includesElement__vdw_radius": [197.0, 152.0, 222.0], "includesElement__vdw_radius_alvarez": [240.0, 150.0, 253.0], "includesElement__vdw_radius_mm3": [222.0, 182.0, 243.0], "includesElement__vdw_radius_uff": [283.4, 350.0, 317.0], "includesElement__abundance_sea": [0.00056, 857000.0, 2e-06], "includesElement__atomic_weight_uncertainty": [0.0004, 2e-05], "includesElement__c6_gb": [393.0, 16.7, 887.0], "includesElement__covalent_radius_bragg": [135.0, 65.0], "includesElement__electronegativity_allen": [11.13, 21.36, 7.93], "includesElement__en_allen": [11.13, 21.36, 7.93], "includesElement__metallic_radius": [115.0, 134.0], "includesElement__metallic_radius_c12": [124.0, 146.0], "includesElement__thermal_conductivity": [90.9, 0.027, 57.5], "includesElement__vdw_radius_batsanov": [200.0, 155.0, 220.0], "includesElement__c6": [373.0, 15.6], "includesElement__gas_basicity": [714.1, 459.6], "includesElement__proton_affinity": [737.0, 485.2], "includesElement__vdw_radius_dreiding": [340.46], "includesElement__vdw_radius_bondi": [152.0], "includesElement__vdw_radius_rt": [158.0], "formula": ["Ni2O12Ta4"], "spacegroup": ["136"], "thermalConductivity": [7.28957], "icsd": ["247807"], "band_gap": [0.0], "density": [8.431447], "density_atomic": [11.30438], "deprecated": [false], "efermi": [3.863988], "energy_above_hull": [0.0], "energy_per_atom": [-9.468558], "formation_energy_per_atom": [-2.887716], "is_gap_direct": [false], "is_magnetic": [true], "is_metal": [true], "is_stable": [true], "nelements": [3], "nsites": [18], "num_magnetic_sites": [2], "num_unique_magnetic_sites": [1], "theoretical": [false], "total_magnetization": [4.0], "total_magnetization_normalized_formula_units": [2.0], "total_magnetization_normalized_vol": [0.01965807], "uncorrected_energy_per_atom": [-18.8089], "volume": [203.4788], "e_electronic": [5.552844], "e_ionic": [26.71483], "e_total": [32.26768], "equilibrium_reaction_energy_per_atom": [-0.02759857], "n": [2.356447]}