{"includesElement": ["", "Tl", "Pr"], "includesElement___series_id": [7, 9], "includesElement__abundance_crust": [0.85, 9.2], "includesElement__atomic_number": [81, 59], "includesElement__atomic_radius": [190.0, 185.0], "includesElement__atomic_radius_rahm": [242.0, 286.0], "includesElement__atomic_volume": [17.2, 20.8], "includesElement__atomic_weight": [204.38, 140.9077], "includesElement__covalent_radius_cordero": [145.0, 203.0], "includesElement__covalent_radius_pyykko": [144.0, 176.0], "includesElement__covalent_radius_pyykko_double": [142.0, 138.0], "includesElement__covalent_radius_pyykko_triple": [150.0, 128.0], "includesElement__density": [11.8, 6.773], "includesElement__dipole_polarizability": [50.0, 216.0], "includesElement__dipole_polarizability_unc": [2.0, 20.0], "includesElement__discovery_year": [1861, 1885], "includesElement__electron_affinity": [0.377, 0.962], "includesElement__electronegativity_allred-rochow": [0.0002411265, 9.200671e-05], "includesElement__electronegativity_cottrell-sutton": [0.186339, 0.1272524], "includesElement__electronegativity_ghosh": [0.173447, 0.17208], "includesElement__electronegativity_gordy": [0.03472222, 0.01619318], "includesElement__electronegativity_mulliken": [3.242643, 3.2175], "includesElement__electronegativity_nagle": [0.3914868, 0.284996], "includesElement__electronegativity_pauling": [1.8, 1.13], "includesElement__electronegativity_sanderson": [0.9245096, 0.428804], "includesElement__en_ghosh": [0.173447, 0.17208], "includesElement__en_pauling": [1.8, 1.13], "includesElement__evaporation_heat": [162.4, 331.0], "includesElement__fusion_heat": [4.31, 11.3], "includesElement__glawe_number": [81, 30], "includesElement__group_id": [13], "includesElement__heat_of_formation": [182.2, 356.9], "includesElement__is_radioactive": [false], "includesElement__lattice_constant": [3.46, 3.67], "includesElement__mendeleev_number": [85, 17], "includesElement__molar_heat_capacity": [26.32, 27.2], "includesElement__period": [6], "includesElement__pettifor_number": [78, 31], "includesElement__specific_heat_capacity": [0.129, 0.193], "includesElement__vdw_radius": [196.0, 240.0], "includesElement__vdw_radius_alvarez": [247.0, 292.0], "includesElement__vdw_radius_mm3": [259.0, 273.0], "includesElement__vdw_radius_uff": [434.7, 360.6], "includesElement__abundance_sea": [1.9e-05, 6.4e-07], "includesElement__c6_gb": [509.0, 3760.0], "includesElement__covalent_radius_bragg": [190.0], "includesElement__metallic_radius": [144.0], "includesElement__metallic_radius_c12": [160.0], "includesElement__thermal_conductivity": [46.1, 12.5], "includesElement__vdw_radius_batsanov": [220.0], "includesElement__vdw_radius_bondi": [196.0], "includesElement__atomic_weight_uncertainty": [2e-05], "includesElement__is_monoisotopic": [true], "formula": ["Pr1Tl3"], "spacegroup": ["221"], "thermalConductivity": [1.08623], "icsd": ["108700"], "band_gap": [0.0], "density": [11.20449], "density_atomic": [27.93839], "deprecated": [false], "efermi": [5.950044], "energy_above_hull": [0.0], "energy_per_atom": [-47.63104], "formation_energy_per_atom": [-0.3955704], "is_gap_direct": [false], "is_magnetic": [false], "is_metal": [true], "is_stable": [true], "nelements": [2], "nsites": [4], "num_magnetic_sites": [0], "num_unique_magnetic_sites": [0], "theoretical": [false], "total_magnetization": [6.5e-06], "total_magnetization_normalized_formula_units": [6.5e-06], "total_magnetization_normalized_vol": [5.816369e-08], "uncorrected_energy_per_atom": [-47.63104], "volume": [111.7536], "equilibrium_reaction_energy_per_atom": [-0.0627844]}