{"includesElement": ["", "Sb", "K", "Cs"], "includesElement___series_id": [5, 3], "includesElement__abundance_crust": [0.2, 20900.0, 3.0], "includesElement__atomic_number": [51, 19, 55], "includesElement__atomic_radius": [145.0, 220.0, 260.0], "includesElement__atomic_radius_rahm": [246.0, 234.0, 249.0], "includesElement__atomic_volume": [18.4, 45.3, 70.0], "includesElement__atomic_weight": [121.76, 39.0983, 132.9055], "includesElement__covalent_radius_cordero": [139.0, 203.0, 244.0], "includesElement__covalent_radius_pyykko": [140.0, 196.0, 232.0], "includesElement__covalent_radius_pyykko_double": [133.0, 193.0, 209.0], "includesElement__covalent_radius_pyykko_triple": [127.0], "includesElement__density": [6.68, 0.89, 1.873], "includesElement__dipole_polarizability": [43.0, 289.7, 400.9], "includesElement__dipole_polarizability_unc": [2.0, 0.3, 0.7], "includesElement__electron_affinity": [1.046, 0.50147, 0.471626], "includesElement__electronegativity_allred-rochow": [0.0003214286, 5.726781e-05, 4.087396e-05], "includesElement__electronegativity_cottrell-sutton": [0.212132, 0.1059457, 0.09737946], "includesElement__electronegativity_ghosh": [0.1918774, 0.0981896, 0.1542125], "includesElement__electronegativity_gordy": [0.045, 0.01122449, 0.009482759], "includesElement__electronegativity_mulliken": [4.827195, 2.421067, 2.182766], "includesElement__electronegativity_nagle": [0.4880907, 0.1511299, 0.1356192], "includesElement__electronegativity_pauling": [2.05, 0.82, 0.79], "includesElement__electronegativity_sanderson": [0.7762722, 0.1218383, 0.1814531], "includesElement__en_ghosh": [0.1918774, 0.0981896, 0.1542125], "includesElement__en_pauling": [2.05, 0.82, 0.79], "includesElement__evaporation_heat": [195.2, 2.33, 68.3], "includesElement__fusion_heat": [20.08, 102.5, 2.09], "includesElement__glawe_number": [91, 10, 8], "includesElement__group_id": [15, 1], "includesElement__heat_of_formation": [264.4, 89.0, 76.5], "includesElement__is_radioactive": [false], "includesElement__lattice_constant": [4.51, 5.23, 6.05], "includesElement__mendeleev_number": [96, 3, 5], "includesElement__molar_heat_capacity": [25.23, 29.6, 32.21], "includesElement__period": [5, 4, 6], "includesElement__pettifor_number": [88, 10, 8], "includesElement__specific_heat_capacity": [0.207, 0.757, 0.242], "includesElement__vdw_radius": [206.0, 275.0, 343.0], "includesElement__vdw_radius_alvarez": [247.0, 273.0, 348.0], "includesElement__vdw_radius_mm3": [252.0, 309.0, 344.0], "includesElement__vdw_radius_uff": [442.0, 381.2, 451.7], "includesElement__abundance_sea": [0.00024, 399.0, 0.0003], "includesElement__atomic_weight_uncertainty": [0.001, 0.0001, 6e-08], "includesElement__c6_gb": [504.0, 3910.0, 6660.0], "includesElement__covalent_radius_bragg": [140.0, 207.0, 237.0], "includesElement__electronegativity_allen": [11.74, 4.34, 3.898], "includesElement__en_allen": [11.74, 4.34, 3.898], "includesElement__metallic_radius": [139.0, 203.0, 235.0], "includesElement__metallic_radius_c12": [166.0, 235.0, 267.0], "includesElement__thermal_conductivity": [24.43, 79.0, 35.9], "includesElement__vdw_radius_batsanov": [220.0, 280.0, 300.0], "includesElement__c6": [492.0, 3923.0], "includesElement__vdw_radius_dreiding": [435.0], "includesElement__vdw_radius_truhlar": [206.0, 343.0], "includesElement__discovery_year": [1807, 1860], "includesElement__vdw_radius_bondi": [275.0], "includesElement__is_monoisotopic": [true], "formula": ["Cs1K2Sb1"], "spacegroup": ["225"], "thermalConductivity": [0.798508], "icsd": ["53237"], "band_gap": [0.8634], "density": [3.446978], "density_atomic": [40.08804], "deprecated": [false], "efermi": [1.820243], "energy_above_hull": [0.0], "energy_per_atom": [-16.26939], "formation_energy_per_atom": [-0.5588751], "homogeneous_poisson": [0.24], "is_gap_direct": [true], "is_magnetic": [false], "is_metal": [false], "is_stable": [true], "nelements": [3], "nsites": [4], "num_magnetic_sites": [0], "num_unique_magnetic_sites": [0], "theoretical": [false], "total_magnetization": [0.0], "total_magnetization_normalized_formula_units": [0.0], "total_magnetization_normalized_vol": [0.0], "uncorrected_energy_per_atom": [-16.26939], "universal_anisotropy": [0.595], "volume": [160.3522], "cbm": [2.6592], "e_electronic": [7.640906], "e_ionic": [11.9489], "e_total": [19.58981], "equilibrium_reaction_energy_per_atom": [-0.02427481], "n": [2.764219], "vbm": [1.7958]}