{"includesElement": ["", "Sc", "B", "C"], "includesElement___series_id": [8, 5, 1], "includesElement__abundance_crust": [22.0, 10.0, 200.0], "includesElement__atomic_number": [21, 5, 6], "includesElement__atomic_radius": [160.0, 85.0, 70.0], "includesElement__atomic_radius_rahm": [263.0, 205.0, 190.0], "includesElement__atomic_volume": [15.0, 4.6, 5.3], "includesElement__atomic_weight": [44.95591, 10.81, 12.011], "includesElement__covalent_radius_cordero": [170.0, 84.0, 73.0], "includesElement__covalent_radius_pyykko": [148.0, 85.0, 75.0], "includesElement__covalent_radius_pyykko_double": [116.0, 78.0, 67.0], "includesElement__covalent_radius_pyykko_triple": [114.0, 73.0, 60.0], "includesElement__density": [2.99, 2.34, 2.2], "includesElement__dipole_polarizability": [97.0, 20.5, 11.3], "includesElement__dipole_polarizability_unc": [10.0, 0.1, 0.2], "includesElement__discovery_year": [1879, 1808], "includesElement__electron_affinity": [0.188, 0.279723, 1.262119], "includesElement__electronegativity_allred-rochow": [0.0001369613, 0.0003598616, 0.0005777778], "includesElement__electronegativity_cottrell-sutton": [0.1423737, 0.1748949, 0.2081666], "includesElement__electronegativity_ghosh": [0.1193833, 0.184886, 0.224776], "includesElement__electronegativity_gordy": [0.02027027, 0.03058824, 0.04333333], "includesElement__electronegativity_mulliken": [3.374745, 4.288871, 6.261208], "includesElement__electronegativity_nagle": [0.3138941, 0.5269739, 0.7073926], "includesElement__electronegativity_pauling": [1.36, 2.04, 2.55], "includesElement__electronegativity_sanderson": [0.3038674, 0.2546274, 0.427525], "includesElement__en_ghosh": [0.1193833, 0.184886, 0.224776], "includesElement__en_pauling": [1.36, 2.04, 2.55], "includesElement__evaporation_heat": [332.7, 504.5], "includesElement__fusion_heat": [15.8, 23.6], "includesElement__glawe_number": [48, 86, 87], "includesElement__group_id": [3, 13, 14], "includesElement__heat_of_formation": [377.8, 565.0, 716.87], "includesElement__is_radioactive": [false], "includesElement__lattice_constant": [3.31, 8.73, 3.57], "includesElement__mendeleev_number": [11, 81, 87], "includesElement__molar_heat_capacity": [25.52, 11.087, 8.517], "includesElement__period": [4, 2], "includesElement__pettifor_number": [20, 86, 95], "includesElement__specific_heat_capacity": [0.568, 1.026, 0.709], "includesElement__vdw_radius": [215.0, 192.0, 170.0], "includesElement__vdw_radius_alvarez": [258.0, 191.0, 177.0], "includesElement__vdw_radius_mm3": [261.0, 215.0, 204.0], "includesElement__vdw_radius_uff": [329.5, 408.3, 385.1], "includesElement__abundance_sea": [6e-07, 4.44, 28.0], "includesElement__atomic_weight_uncertainty": [5e-06], "includesElement__c6_gb": [1570.0, 99.2, 47.9], "includesElement__electronegativity_allen": [7.042, 12.13, 15.05], "includesElement__en_allen": [7.042, 12.13, 15.05], "includesElement__metallic_radius": [144.0, 80.0], "includesElement__metallic_radius_c12": [162.0, 98.0, 86.0], "includesElement__thermal_conductivity": [15.8, 27.4, 1.59], "includesElement__vdw_radius_batsanov": [230.0, 180.0, 170.0], "includesElement__c6": [1383.0, 99.5, 46.6], "includesElement__is_monoisotopic": [true], "includesElement__gas_basicity": [892.0], "includesElement__proton_affinity": [914.0], "includesElement__vdw_radius_dreiding": [402.0, 389.83], "includesElement__vdw_radius_truhlar": [192.0], "includesElement__covalent_radius_bragg": [77.0], "includesElement__vdw_radius_bondi": [170.0], "includesElement__vdw_radius_rt": [177.0], "formula": ["B16C8Sc8"], "spacegroup": ["135"], "thermalConductivity": [15.3997], "icsd": ["54104"], "band_gap": [0.0], "density": [3.480377], "density_atomic": [9.373946], "deprecated": [false], "efermi": [6.697637], "energy_above_hull": [0.05361249], "energy_per_atom": [-7.805496], "formation_energy_per_atom": [-0.5755162], "is_gap_direct": [false], "is_magnetic": [false], "is_metal": [true], "is_stable": [false], "nelements": [3], "nsites": [32], "num_magnetic_sites": [0], "num_unique_magnetic_sites": [0], "theoretical": [false], "total_magnetization": [0.000167], "total_magnetization_normalized_formula_units": [2.0875e-05], "total_magnetization_normalized_vol": [5.567293e-07], "uncorrected_energy_per_atom": [-7.805496], "volume": [299.9663]}