{"includesElement": ["", "As", "Tl", "Pd"], "includesElement___series_id": [5, 7, 8], "includesElement__abundance_crust": [1.8, 0.85, 0.015], "includesElement__atomic_number": [33, 81, 46], "includesElement__atomic_radius": [115.0, 190.0, 140.0], "includesElement__atomic_radius_rahm": [231.0, 242.0, 215.0], "includesElement__atomic_volume": [13.1, 17.2, 8.9], "includesElement__atomic_weight": [74.92159, 204.38, 106.42], "includesElement__covalent_radius_cordero": [119.0, 145.0, 139.0], "includesElement__covalent_radius_pyykko": [121.0, 144.0, 120.0], "includesElement__covalent_radius_pyykko_double": [114.0, 142.0, 117.0], "includesElement__covalent_radius_pyykko_triple": [106.0, 150.0, 112.0], "includesElement__density": [5.75, 11.8, 12.0], "includesElement__dipole_polarizability": [30.0, 50.0, 26.14], "includesElement__dipole_polarizability_unc": [1.0, 2.0, 0.1], "includesElement__electron_affinity": [0.804, 0.377, 0.562], "includesElement__electronegativity_allred-rochow": [0.0004302985, 0.0002411265, 0.0004756944], "includesElement__electronegativity_cottrell-sutton": [0.22818, 0.186339, 0.2389212], "includesElement__electronegativity_ghosh": [0.2068208, 0.173447, 0.1440276], "includesElement__electronegativity_gordy": [0.05206612, 0.03472222, 0.05708333], "includesElement__electronegativity_mulliken": [5.2965, 3.242643, 4.44943], "includesElement__electronegativity_nagle": [0.5503212, 0.3914868, 0.7259357], "includesElement__electronegativity_pauling": [2.18, 1.8, 2.2], "includesElement__electronegativity_sanderson": [0.8253373, 0.9245096, 1.124263], "includesElement__en_ghosh": [0.2068208, 0.173447, 0.1440276], "includesElement__en_pauling": [2.18, 1.8, 2.2], "includesElement__evaporation_heat": [32.4, 162.4, 372.4], "includesElement__glawe_number": [90, 81, 65], "includesElement__group_id": [15, 13, 10], "includesElement__heat_of_formation": [302.5, 182.2, 376.6], "includesElement__is_radioactive": [false], "includesElement__lattice_constant": [4.13, 3.46, 3.89], "includesElement__mendeleev_number": [95, 85, 68], "includesElement__molar_heat_capacity": [24.64, 26.32, 25.98], "includesElement__period": [4, 6, 5], "includesElement__pettifor_number": [89, 78, 69], "includesElement__specific_heat_capacity": [0.329, 0.129, 0.246], "includesElement__vdw_radius": [185.0, 196.0, 210.0], "includesElement__vdw_radius_alvarez": [188.0, 247.0, 215.0], "includesElement__vdw_radius_mm3": [236.0, 259.0, 237.0], "includesElement__vdw_radius_uff": [423.0, 434.7, 289.9], "includesElement__abundance_sea": [0.0037, 1.9e-05], "includesElement__atomic_weight_uncertainty": [6e-06, 0.01], "includesElement__c6_gb": [260.0, 509.0, 628.0], "includesElement__covalent_radius_bragg": [126.0, 190.0], "includesElement__electronegativity_allen": [13.08, 9.402], "includesElement__en_allen": [13.08, 9.402], "includesElement__metallic_radius": [121.0, 144.0, 128.0], "includesElement__metallic_radius_c12": [148.0, 160.0, 137.0], "includesElement__vdw_radius_batsanov": [205.0, 220.0], "includesElement__c6": [246.0], "includesElement__is_monoisotopic": [true], "includesElement__vdw_radius_dreiding": [415.0], "includesElement__vdw_radius_bondi": [185.0, 196.0], "includesElement__discovery_year": [1861, 1803], "includesElement__fusion_heat": [4.31, 17.24], "includesElement__thermal_conductivity": [46.1, 71.8], "includesElement__gas_basicity": [673.4], "includesElement__proton_affinity": [696.0], "formula": ["As1Pd5Tl1"], "spacegroup": ["123"], "thermalConductivity": [1.85416], "icsd": ["23540"], "band_gap": [0.0], "density": [11.62041], "density_atomic": [16.56408], "deprecated": [false], "efermi": [5.52043], "energy_above_hull": [0.0], "energy_per_atom": [-26.47022], "formation_energy_per_atom": [-0.3717808], "homogeneous_poisson": [0.341], "is_gap_direct": [false], "is_magnetic": [false], "is_metal": [true], "is_stable": [true], "nelements": [3], "nsites": [7], "num_magnetic_sites": [0], "num_unique_magnetic_sites": [0], "theoretical": [false], "total_magnetization": [0.0], "total_magnetization_normalized_formula_units": [0.0], "total_magnetization_normalized_vol": [0.0], "uncorrected_energy_per_atom": [-26.47022], "universal_anisotropy": [0.453], "volume": [115.9486], "equilibrium_reaction_energy_per_atom": [-0.06202672]}