{"includesElement": ["", "Mg", "N", "Ge"], "includesElement___series_id": [4, 1, 5], "includesElement__abundance_crust": [23300.0, 19.0, 1.5], "includesElement__atomic_number": [12, 7, 32], "includesElement__atomic_radius": [150.0, 65.0, 125.0], "includesElement__atomic_radius_rahm": [240.0, 179.0, 234.0], "includesElement__atomic_volume": [14.0, 17.3, 13.6], "includesElement__atomic_weight": [24.305, 14.007, 72.63], "includesElement__covalent_radius_cordero": [141.0, 71.0, 120.0], "includesElement__covalent_radius_pyykko": [139.0, 71.0, 121.0], "includesElement__covalent_radius_pyykko_double": [132.0, 60.0, 111.0], "includesElement__covalent_radius_pyykko_triple": [127.0, 54.0, 114.0], "includesElement__density": [1.74, 0.001145, 5.3234], "includesElement__dipole_polarizability": [71.2, 7.4, 40.0], "includesElement__dipole_polarizability_unc": [0.4, 0.2, 1.0], "includesElement__discovery_year": [1808, 1772, 1886], "includesElement__electronegativity_allred-rochow": [0.0001475079, 0.000773656, 0.0003859026], "includesElement__electronegativity_cottrell-sutton": [0.1431908, 0.2343706, 0.2160884], "includesElement__electronegativity_ghosh": [0.121644, 0.26493, 0.1895892], "includesElement__electronegativity_gordy": [0.0205036, 0.05492958, 0.04669421], "includesElement__electronegativity_mulliken": [3.823117, 6.567065, 4.566073], "includesElement__electronegativity_nagle": [0.3039835, 0.8774979, 0.4641589], "includesElement__electronegativity_pauling": [1.31, 3.04, 2.01], "includesElement__electronegativity_sanderson": [0.1524211, 0.577482, 0.8001471], "includesElement__en_ghosh": [0.121644, 0.26493, 0.1895892], "includesElement__en_pauling": [1.31, 3.04, 2.01], "includesElement__evaporation_heat": [131.8, 328.0], "includesElement__fusion_heat": [9.2, 36.8], "includesElement__glawe_number": [73, 88, 84], "includesElement__group_id": [2, 15, 14], "includesElement__heat_of_formation": [147.1, 472.44, 372.0], "includesElement__is_radioactive": [false], "includesElement__lattice_constant": [3.21, 4.039, 5.66], "includesElement__mendeleev_number": [76, 93, 89], "includesElement__molar_heat_capacity": [24.869, 29.124, 23.222], "includesElement__period": [3, 2, 4], "includesElement__pettifor_number": [73, 100, 84], "includesElement__specific_heat_capacity": [1.023, 1.04, 0.32], "includesElement__vdw_radius": [173.0, 155.0, 211.0], "includesElement__vdw_radius_alvarez": [251.0, 166.0, 229.0], "includesElement__vdw_radius_mm3": [243.0, 193.0, 244.0], "includesElement__vdw_radius_uff": [302.1, 366.0, 428.0], "includesElement__abundance_sea": [1290.0, 0.5, 5e-05], "includesElement__c6_gb": [629.0, 25.7, 365.0], "includesElement__covalent_radius_bragg": [142.0, 65.0], "includesElement__electronegativity_allen": [7.646, 18.13, 11.8], "includesElement__en_allen": [7.646, 18.13, 11.8], "includesElement__metallic_radius": [136.0, 124.0], "includesElement__metallic_radius_c12": [160.0, 53.0, 144.0], "includesElement__thermal_conductivity": [156.0, 0.026, 60.2], "includesElement__vdw_radius_batsanov": [220.0, 160.0, 210.0], "includesElement__c6": [626.0, 24.2, 354.0], "includesElement__gas_basicity": [797.3, 318.7], "includesElement__proton_affinity": [819.6, 342.2], "includesElement__vdw_radius_bondi": [173.0, 155.0], "includesElement__electron_affinity": [-1.4, 1.232712], "includesElement__vdw_radius_dreiding": [366.21, 427.0], "includesElement__vdw_radius_rt": [164.0], "includesElement__atomic_weight_uncertainty": [0.008], "includesElement__vdw_radius_truhlar": [211.0], "formula": ["Ge4Mg4N8"], "spacegroup": ["33"], "thermalConductivity": [6.75954], "icsd": ["23502"], "band_gap": [2.6358], "density": [4.412035], "density_atomic": [11.75752], "deprecated": [false], "efermi": [3.461924], "energy_above_hull": [0.0], "energy_per_atom": [-9.835632], "formation_energy_per_atom": [-0.7609368], "homogeneous_poisson": [0.257], "is_gap_direct": [true], "is_magnetic": [false], "is_metal": [false], "is_stable": [true], "nelements": [3], "nsites": [16], "num_magnetic_sites": [0], "num_unique_magnetic_sites": [0], "theoretical": [false], "total_magnetization": [0.0], "total_magnetization_normalized_formula_units": [0.0], "total_magnetization_normalized_vol": [0.0], "uncorrected_energy_per_atom": [-9.835632], "universal_anisotropy": [0.119], "volume": [188.1203], "cbm": [6.032], "e_electronic": [5.026605], "e_ionic": [4.393925], "e_total": [9.42053], "equilibrium_reaction_energy_per_atom": [-0.2559914], "n": [2.242009], "vbm": [3.3962], "e_ij_max": [1.264328]}