{"includesElement": ["", "Hg", "Ag", "I"], "includesElement___series_id": [8, 6], "includesElement__abundance_crust": [0.085, 0.075, 0.45], "includesElement__atomic_number": [80, 47, 53], "includesElement__atomic_radius": [150.0, 160.0, 140.0], "includesElement__atomic_radius_rahm": [229.0, 225.0, 238.0], "includesElement__atomic_volume": [14.8, 10.3, 25.7], "includesElement__atomic_weight": [200.592, 107.8682, 126.9045], "includesElement__covalent_radius_cordero": [132.0, 145.0, 139.0], "includesElement__covalent_radius_pyykko": [133.0, 128.0], "includesElement__covalent_radius_pyykko_double": [142.0, 139.0, 129.0], "includesElement__density": [13.5336, 10.5, 4.933], "includesElement__dipole_polarizability": [33.91, 55.0, 32.9], "includesElement__dipole_polarizability_unc": [0.34, 8.0, 1.3], "includesElement__electronegativity_allred-rochow": [0.0002459155, 0.0002258301, 0.0004296455], "includesElement__electronegativity_cottrell-sutton": [0.1808501, 0.1700184, 0.2390457], "includesElement__electronegativity_ghosh": [0.169, 0.1472165, 0.2195176], "includesElement__electronegativity_gordy": [0.03270677, 0.02890625, 0.05714286], "includesElement__electronegativity_mulliken": [5.218752, 4.439117, 6.755148], "includesElement__electronegativity_nagle": [0.7073231, 0.5848035, 0.5969904], "includesElement__electronegativity_pauling": [1.9, 1.93, 2.66], "includesElement__electronegativity_sanderson": [1.164789, 0.9437955, 0.9386429], "includesElement__en_ghosh": [0.169, 0.1472165, 0.2195176], "includesElement__en_pauling": [1.9, 1.93, 2.66], "includesElement__evaporation_heat": [58.5, 254.1, 41.95], "includesElement__fusion_heat": [2.295, 11.95, 15.52], "includesElement__glawe_number": [76, 67, 99], "includesElement__group_id": [12, 11, 17], "includesElement__heat_of_formation": [61.38, 284.9, 106.757], "includesElement__is_radioactive": [false], "includesElement__lattice_constant": [2.99, 4.09, 7.72], "includesElement__mendeleev_number": [79, 72, 109], "includesElement__molar_heat_capacity": [27.983, 25.35, 54.43], "includesElement__period": [6, 5], "includesElement__pettifor_number": [74, 71, 97], "includesElement__specific_heat_capacity": [0.14, 0.235, 0.214], "includesElement__vdw_radius": [223.0, 211.0, 198.0], "includesElement__vdw_radius_alvarez": [245.0, 253.0, 204.0], "includesElement__vdw_radius_mm3": [253.0, 243.0, 236.0], "includesElement__vdw_radius_uff": [270.5, 314.8, 450.0], "includesElement__abundance_sea": [3e-05, 4e-05, 0.06], "includesElement__atomic_weight_uncertainty": [0.003, 0.0002, 3e-05], "includesElement__c6_gb": [268.0, 341.0, 389.0], "includesElement__electronegativity_allen": [10.44, 11.05, 13.95], "includesElement__en_allen": [10.44, 11.05, 13.95], "includesElement__metallic_radius": [139.0, 134.0], "includesElement__metallic_radius_c12": [151.0, 144.0, 139.0], "includesElement__thermal_conductivity": [8.3, 429.0], "includesElement__vdw_radius_batsanov": [205.0, 210.0], "includesElement__covalent_radius_pyykko_triple": [137.0, 125.0], "includesElement__electron_affinity": [1.302, 3.059037], "includesElement__covalent_radius_bragg": [177.0, 140.0], "includesElement__discovery_year": [1811], "includesElement__c6": [385.0], "includesElement__is_monoisotopic": [true], "includesElement__vdw_radius_dreiding": [415.0], "includesElement__gas_basicity": [583.5], "includesElement__proton_affinity": [608.2], "includesElement__vdw_radius_bondi": [198.0], "includesElement__vdw_radius_rt": [203.0], "formula": ["Ag2Hg1I4"], "spacegroup": ["111"], "thermalConductivity": [0.324344], "icsd": ["30264"], "band_gap": [1.1004], "density": [5.727426], "density_atomic": [38.26814], "deprecated": [false], "efermi": [0.9706076], "energy_above_hull": [0.001281977], "energy_per_atom": [-2.238201], "formation_energy_per_atom": [-0.5397709], "homogeneous_poisson": [0.302], "is_gap_direct": [true], "is_magnetic": [false], "is_metal": [false], "is_stable": [false], "nelements": [3], "nsites": [7], "num_magnetic_sites": [0], "num_unique_magnetic_sites": [0], "theoretical": [false], "total_magnetization": [0.0], "total_magnetization_normalized_formula_units": [0.0], "total_magnetization_normalized_vol": [0.0], "uncorrected_energy_per_atom": [-27.51735], "universal_anisotropy": [1.569], "volume": [267.877], "cbm": [2.0134], "e_electronic": [5.366712], "e_ionic": [3.705575], "e_total": [9.072287], "n": [2.316616], "vbm": [0.913], "e_ij_max": [0.20271]}