{"includesElement": ["", "Sb", "Li", "Zn"], "includesElement___series_id": [5, 3, 8], "includesElement__abundance_crust": [0.2, 20.0, 70.0], "includesElement__atomic_number": [51, 3, 30], "includesElement__atomic_radius": [145.0, 135.0], "includesElement__atomic_radius_rahm": [246.0, 220.0, 222.0], "includesElement__atomic_volume": [18.4, 13.1, 9.2], "includesElement__atomic_weight": [121.76, 6.94, 65.38], "includesElement__covalent_radius_cordero": [139.0, 128.0, 122.0], "includesElement__covalent_radius_pyykko": [140.0, 133.0, 118.0], "includesElement__covalent_radius_pyykko_double": [133.0, 124.0, 120.0], "includesElement__covalent_radius_pyykko_triple": [127.0], "includesElement__density": [6.68, 0.534, 7.134], "includesElement__dipole_polarizability": [43.0, 164.1125, 38.67], "includesElement__dipole_polarizability_unc": [2.0, 0.0005, 0.3], "includesElement__electron_affinity": [1.046, 0.618049], "includesElement__electronegativity_allred-rochow": [0.0003214286, 7.3492e-05, 0.0003124102], "includesElement__electronegativity_cottrell-sutton": [0.212132, 0.09886575, 0.1920011], "includesElement__electronegativity_ghosh": [0.1918774, 0.105093, 0.1551518], "includesElement__electronegativity_gordy": [0.045, 0.009774436, 0.03686441], "includesElement__electronegativity_mulliken": [4.827195, 3.004882, 4.6971], "includesElement__electronegativity_nagle": [0.4880907, 0.1826499, 0.6770213], "includesElement__electronegativity_pauling": [2.05, 0.98, 1.65], "includesElement__electronegativity_sanderson": [0.7762722, 0.04886793, 0.8100877], "includesElement__en_ghosh": [0.1918774, 0.105093, 0.1551518], "includesElement__en_pauling": [2.05, 0.98, 1.65], "includesElement__evaporation_heat": [195.2, 148.0, 114.8], "includesElement__fusion_heat": [20.08, 2.89, 7.28], "includesElement__glawe_number": [91, 12, 74], "includesElement__group_id": [15, 1, 12], "includesElement__heat_of_formation": [264.4, 159.3, 130.4], "includesElement__is_radioactive": [false], "includesElement__lattice_constant": [4.51, 3.49, 2.66], "includesElement__mendeleev_number": [96, 1, 77], "includesElement__molar_heat_capacity": [25.23, 24.86, 25.39], "includesElement__period": [5, 2, 4], "includesElement__pettifor_number": [88, 12, 76], "includesElement__specific_heat_capacity": [0.207, 3.582, 0.388], "includesElement__vdw_radius": [206.0, 182.0, 201.0], "includesElement__vdw_radius_alvarez": [247.0, 212.0, 239.0], "includesElement__vdw_radius_mm3": [252.0, 255.0, 229.0], "includesElement__vdw_radius_uff": [442.0, 245.1, 276.3], "includesElement__abundance_sea": [0.00024, 0.18, 0.0049], "includesElement__atomic_weight_uncertainty": [0.001, 0.02], "includesElement__c6_gb": [504.0, 1410.0, 276.0], "includesElement__covalent_radius_bragg": [140.0, 150.0, 132.0], "includesElement__electronegativity_allen": [11.74, 5.392, 9.395], "includesElement__en_allen": [11.74, 5.392, 9.395], "includesElement__metallic_radius": [139.0, 123.0, 121.0], "includesElement__metallic_radius_c12": [166.0, 155.0, 134.0], "includesElement__thermal_conductivity": [24.43, 84.8, 116.0], "includesElement__vdw_radius_batsanov": [220.0, 210.0], "includesElement__c6": [492.0, 1392.0, 284.0], "includesElement__vdw_radius_dreiding": [435.0], "includesElement__vdw_radius_truhlar": [206.0], "includesElement__discovery_year": [1817], "includesElement__vdw_radius_bondi": [181.0], "includesElement__gas_basicity": [586.0], "includesElement__proton_affinity": [608.6], "formula": ["Li2Sb2Zn2"], "spacegroup": ["186"], "thermalConductivity": [2.09482], "icsd": ["42064"], "band_gap": [0.4057], "density": [5.310776], "density_atomic": [20.23102], "deprecated": [false], "efermi": [4.479483], "energy_above_hull": [0.0], "energy_per_atom": [-12.78595], "formation_energy_per_atom": [-0.4514082], "homogeneous_poisson": [0.264], "is_gap_direct": [false], "is_magnetic": [false], "is_metal": [false], "is_stable": [true], "nelements": [3], "nsites": [6], "num_magnetic_sites": [0], "num_unique_magnetic_sites": [0], "theoretical": [false], "total_magnetization": [0.0], "total_magnetization_normalized_formula_units": [0.0], "total_magnetization_normalized_vol": [0.0], "uncorrected_energy_per_atom": [-12.78595], "universal_anisotropy": [0.263], "volume": [121.3861], "cbm": [4.8228], "e_electronic": [18.55679], "e_ionic": [13.34185], "e_total": [31.89864], "equilibrium_reaction_energy_per_atom": [-0.08982567], "n": [4.307759], "vbm": [4.4171], "e_ij_max": [0.7026857]}