{"includesElement": ["", "Si", "Mn", "Tb"], "includesElement___series_id": [5, 8, 9], "includesElement__abundance_crust": [282000.0, 950.0, 1.2], "includesElement__atomic_number": [14, 25, 65], "includesElement__atomic_radius": [110.0, 140.0, 175.0], "includesElement__atomic_radius_rahm": [232.0, 242.0, 276.0], "includesElement__atomic_volume": [12.1, 7.39, 19.2], "includesElement__atomic_weight": [28.085, 54.93804, 158.9254], "includesElement__covalent_radius_cordero": [111.0, 150.0, 194.0], "includesElement__covalent_radius_pyykko": [116.0, 119.0, 168.0], "includesElement__covalent_radius_pyykko_double": [107.0, 105.0, 135.0], "includesElement__covalent_radius_pyykko_triple": [102.0, 103.0], "includesElement__density": [2.3296, 7.3, 8.23], "includesElement__dipole_polarizability": [37.3, 68.0, 170.0], "includesElement__dipole_polarizability_unc": [0.7, 9.0, 20.0], "includesElement__discovery_year": [1824, 1774, 1843], "includesElement__electron_affinity": [1.389521, 1.165], "includesElement__electronegativity_allred-rochow": [0.0003084126, 0.0002542193, 0.0001009779], "includesElement__electronegativity_cottrell-sutton": [0.1891451, 0.1739313, 0.130247], "includesElement__electronegativity_ghosh": [0.178503, 0.1352844, 0.198863], "includesElement__electronegativity_gordy": [0.03577586, 0.0302521, 0.01696429], "includesElement__electronegativity_mulliken": [4.770602, 3.717009, 3.5144], "includesElement__electronegativity_nagle": [0.4750986, 0.4686656, 0.4014652], "includesElement__electronegativity_pauling": [1.9, 1.55], "includesElement__electronegativity_sanderson": [0.3468158, 0.6707264, 0.5163695], "includesElement__en_ghosh": [0.178503, 0.1352844, 0.198863], "includesElement__en_pauling": [1.9, 1.55], "includesElement__evaporation_heat": [383.0, 221.0, 389.0], "includesElement__fusion_heat": [50.6, 13.4], "includesElement__glawe_number": [85, 72, 25], "includesElement__group_id": [14, 7], "includesElement__heat_of_formation": [450.0, 283.3, 388.7], "includesElement__is_radioactive": [false], "includesElement__lattice_constant": [5.43, 8.89, 3.6], "includesElement__mendeleev_number": [88, 55, 29], "includesElement__molar_heat_capacity": [19.99, 26.32, 28.91], "includesElement__period": [3, 4, 6], "includesElement__pettifor_number": [85, 60, 26], "includesElement__specific_heat_capacity": [0.712, 0.479, 0.182], "includesElement__vdw_radius": [210.0, 205.0, 233.0], "includesElement__vdw_radius_alvarez": [219.0, 245.0, 279.0], "includesElement__vdw_radius_mm3": [229.0, 224.0, 270.0], "includesElement__vdw_radius_uff": [429.5, 296.1, 345.1], "includesElement__abundance_sea": [2.2, 0.0002, 1.4e-07], "includesElement__c6_gb": [308.0, 635.0, 2590.0], "includesElement__covalent_radius_bragg": [117.0, 147.0], "includesElement__electronegativity_allen": [11.33, 10.34], "includesElement__en_allen": [11.33, 10.34], "includesElement__metallic_radius": [117.0, 118.0], "includesElement__metallic_radius_c12": [138.0, 127.0], "includesElement__thermal_conductivity": [149.0, 11.1], "includesElement__vdw_radius_batsanov": [210.0, 205.0], "includesElement__c6": [305.0, 552.0], "includesElement__vdw_radius_dreiding": [427.0], "includesElement__gas_basicity": [814.1, 774.4], "includesElement__proton_affinity": [837.0, 797.3], "includesElement__vdw_radius_bondi": [210.0], "includesElement__atomic_weight_uncertainty": [3e-06, 2e-05], "includesElement__is_monoisotopic": [true], "formula": ["Mn4Si4Tb4"], "spacegroup": ["62"], "thermalConductivity": [5.22674], "icsd": ["88060"], "band_gap": [0.0], "density": [7.321206], "density_atomic": [18.29232], "deprecated": [false], "efermi": [5.310364], "energy_above_hull": [0.067575], "energy_per_atom": [-18.79865], "formation_energy_per_atom": [-0.570806], "is_gap_direct": [false], "is_magnetic": [true], "is_metal": [true], "is_stable": [false], "nelements": [3], "nsites": [12], "num_magnetic_sites": [8], "num_unique_magnetic_sites": [2], "theoretical": [false], "total_magnetization": [9.717027], "total_magnetization_normalized_formula_units": [2.429257], "total_magnetization_normalized_vol": [0.04426733], "uncorrected_energy_per_atom": [-6.908753], "volume": [219.5079]}