{"includesElement": ["", "Ta", "Au"], "includesElement___series_id": [8], "includesElement__abundance_crust": [2.0, 0.004], "includesElement__atomic_number": [73, 79], "includesElement__atomic_radius": [145.0, 135.0], "includesElement__atomic_radius_rahm": [258.0, 226.0], "includesElement__atomic_volume": [10.9, 10.2], "includesElement__atomic_weight": [180.9479, 196.9666], "includesElement__covalent_radius_cordero": [170.0, 136.0], "includesElement__covalent_radius_pyykko": [146.0, 124.0], "includesElement__covalent_radius_pyykko_double": [126.0, 121.0], "includesElement__covalent_radius_pyykko_triple": [119.0, 123.0], "includesElement__density": [16.4, 19.3], "includesElement__dipole_polarizability": [74.0, 36.0], "includesElement__dipole_polarizability_unc": [20.0, 3.0], "includesElement__discovery_year": [1802], "includesElement__electron_affinity": [0.322, 2.30863], "includesElement__electronegativity_allred-rochow": [0.0001548133, 0.0002406348], "includesElement__electronegativity_cottrell-sutton": [0.1503421, 0.1727388], "includesElement__electronegativity_ghosh": [0.234581, 0.26137], "includesElement__electronegativity_gordy": [0.02260274, 0.02983871], "includesElement__electronegativity_mulliken": [3.935785, 5.767091], "includesElement__electronegativity_nagle": [0.4072985, 0.67354], "includesElement__electronegativity_pauling": [1.5, 2.4], "includesElement__electronegativity_sanderson": [0.8358832, 1.426701], "includesElement__en_ghosh": [0.234581, 0.26137], "includesElement__en_pauling": [1.5, 2.4], "includesElement__evaporation_heat": [758.0, 340.0], "includesElement__fusion_heat": [24.7, 12.68], "includesElement__glawe_number": [52, 66], "includesElement__group_id": [5, 11], "includesElement__heat_of_formation": [782.0, 368.2], "includesElement__is_radioactive": [false], "includesElement__lattice_constant": [3.31, 4.08], "includesElement__mendeleev_number": [49, 73], "includesElement__molar_heat_capacity": [25.36, 25.418], "includesElement__period": [6], "includesElement__pettifor_number": [53, 70], "includesElement__specific_heat_capacity": [0.14, 0.129], "includesElement__vdw_radius": [222.0, 214.0], "includesElement__vdw_radius_alvarez": [253.0, 232.0], "includesElement__vdw_radius_mm3": [243.0], "includesElement__vdw_radius_uff": [317.0, 329.3], "includesElement__abundance_sea": [2e-06, 4e-06], "includesElement__atomic_weight_uncertainty": [2e-05, 5e-06], "includesElement__c6_gb": [887.0, 427.0], "includesElement__electronegativity_allen": [7.93, 11.33], "includesElement__en_allen": [7.93, 11.33], "includesElement__metallic_radius": [134.0], "includesElement__metallic_radius_c12": [146.0, 144.0], "includesElement__thermal_conductivity": [57.5, 318.0], "includesElement__vdw_radius_batsanov": [220.0, 210.0], "includesElement__is_monoisotopic": [true], "formula": ["Au2Ta6"], "spacegroup": ["223"], "thermalConductivity": [4.16073], "icsd": ["58599"], "band_gap": [0.0], "density": [17.32367], "density_atomic": [17.7284], "deprecated": [false], "efermi": [6.091916], "energy_above_hull": [0.0], "energy_per_atom": [-49.14469], "formation_energy_per_atom": [-0.05457062], "homogeneous_poisson": [0.354], "is_gap_direct": [false], "is_magnetic": [false], "is_metal": [true], "is_stable": [true], "nelements": [2], "nsites": [8], "num_magnetic_sites": [0], "num_unique_magnetic_sites": [0], "theoretical": [false], "total_magnetization": [0.0029163], "total_magnetization_normalized_formula_units": [0.00145815], "total_magnetization_normalized_vol": [2.056234e-05], "uncorrected_energy_per_atom": [-49.14469], "universal_anisotropy": [2.404], "volume": [141.8272], "equilibrium_reaction_energy_per_atom": [-0.001747804]}