{"includesElement": ["", "P", "Nb", "C"], "includesElement___series_id": [1, 8], "includesElement__abundance_crust": [1050.0, 20.0, 200.0], "includesElement__atomic_number": [15, 41, 6], "includesElement__atomic_radius": [100.0, 145.0, 70.0], "includesElement__atomic_radius_rahm": [223.0, 251.0, 190.0], "includesElement__atomic_volume": [17.0, 10.8, 5.3], "includesElement__atomic_weight": [30.97376, 92.90637, 12.011], "includesElement__covalent_radius_cordero": [107.0, 164.0, 73.0], "includesElement__covalent_radius_pyykko": [111.0, 147.0, 75.0], "includesElement__covalent_radius_pyykko_double": [102.0, 125.0, 67.0], "includesElement__covalent_radius_pyykko_triple": [94.0, 116.0, 60.0], "includesElement__density": [1.823, 8.57, 2.2], "includesElement__dipole_polarizability": [25.0, 98.0, 11.3], "includesElement__dipole_polarizability_unc": [1.0, 8.0, 0.2], "includesElement__discovery_year": [1669, 1801], "includesElement__electron_affinity": [0.746607, 0.917406, 1.262119], "includesElement__electronegativity_allred-rochow": [0.0003895788, 0.0001295756, 0.0005777778], "includesElement__electronegativity_cottrell-sutton": [0.2079501, 0.1380131, 0.2081666], "includesElement__electronegativity_ghosh": [0.206931, 0.1280782, 0.224776], "includesElement__electronegativity_gordy": [0.04324324, 0.01904762, 0.04333333], "includesElement__electronegativity_mulliken": [5.616646, 3.838128, 6.261208], "includesElement__electronegativity_nagle": [0.5848035, 0.3708924, 0.7073926], "includesElement__electronegativity_pauling": [2.19, 1.6, 2.55], "includesElement__electronegativity_sanderson": [0.4510269, 0.5561695, 0.427525], "includesElement__en_ghosh": [0.206931, 0.1280782, 0.224776], "includesElement__en_pauling": [2.19, 1.6, 2.55], "includesElement__evaporation_heat": [49.8, 680.0], "includesElement__fusion_heat": [2.51, 26.8], "includesElement__glawe_number": [89, 53, 87], "includesElement__group_id": [15, 5, 14], "includesElement__heat_of_formation": [316.5, 733.0, 716.87], "includesElement__is_radioactive": [false], "includesElement__lattice_constant": [7.17, 3.3, 3.57], "includesElement__mendeleev_number": [94, 48, 87], "includesElement__molar_heat_capacity": [23.824, 24.6, 8.517], "includesElement__period": [3, 5, 2], "includesElement__pettifor_number": [90, 52, 95], "includesElement__specific_heat_capacity": [0.769, 0.265, 0.709], "includesElement__vdw_radius": [180.0, 218.0, 170.0], "includesElement__vdw_radius_alvarez": [190.0, 256.0, 177.0], "includesElement__vdw_radius_mm3": [222.0, 243.0, 204.0], "includesElement__vdw_radius_uff": [414.7, 316.5, 385.1], "includesElement__abundance_sea": [0.06, 1e-05, 28.0], "includesElement__atomic_weight_uncertainty": [5e-09, 2e-05], "includesElement__c6_gb": [187.0, 1140.0, 47.9], "includesElement__electronegativity_allen": [13.33, 8.34, 15.05], "includesElement__en_allen": [13.33, 8.34, 15.05], "includesElement__metallic_radius": [110.0, 134.0], "includesElement__metallic_radius_c12": [128.0, 146.0, 86.0], "includesElement__vdw_radius_batsanov": [195.0, 215.0, 170.0], "includesElement__c6": [185.0, 46.6], "includesElement__is_monoisotopic": [true], "includesElement__vdw_radius_dreiding": [415.0, 389.83], "includesElement__gas_basicity": [604.8], "includesElement__proton_affinity": [626.8], "includesElement__vdw_radius_bondi": [180.0, 170.0], "includesElement__thermal_conductivity": [53.7, 1.59], "includesElement__covalent_radius_bragg": [77.0], "includesElement__vdw_radius_rt": [177.0], "formula": ["C2Nb4P2"], "spacegroup": ["194"], "thermalConductivity": [21.2101], "icsd": ["43009"], "band_gap": [0.0], "density": [6.86958], "density_atomic": [13.82642], "deprecated": [false], "efermi": [7.370835], "energy_above_hull": [0.0], "energy_per_atom": [-9.46008], "formation_energy_per_atom": [-0.7483925], "homogeneous_poisson": [0.255], "is_gap_direct": [false], "is_magnetic": [false], "is_metal": [true], "is_stable": [true], "nelements": [3], "nsites": [8], "num_magnetic_sites": [0], "num_unique_magnetic_sites": [0], "theoretical": [false], "total_magnetization": [0.0], "total_magnetization_normalized_formula_units": [0.0], "total_magnetization_normalized_vol": [0.0], "uncorrected_energy_per_atom": [-17.92302], "universal_anisotropy": [0.479], "volume": [110.6113], "equilibrium_reaction_energy_per_atom": [-0.004453904]}