{"includesElement": ["", "Ni", "Sb", "Zn"], "includesElement___series_id": [8, 5], "includesElement__abundance_crust": [84.0, 0.2, 70.0], "includesElement__atomic_number": [28, 51, 30], "includesElement__atomic_radius": [135.0, 145.0], "includesElement__atomic_radius_rahm": [229.0, 246.0, 222.0], "includesElement__atomic_volume": [6.6, 18.4, 9.2], "includesElement__atomic_weight": [58.6934, 121.76, 65.38], "includesElement__covalent_radius_cordero": [124.0, 139.0, 122.0], "includesElement__covalent_radius_pyykko": [110.0, 140.0, 118.0], "includesElement__covalent_radius_pyykko_double": [101.0, 133.0, 120.0], "includesElement__covalent_radius_pyykko_triple": [101.0, 127.0], "includesElement__density": [8.9, 6.68, 7.134], "includesElement__dipole_polarizability": [49.0, 43.0, 38.67], "includesElement__dipole_polarizability_unc": [3.0, 2.0, 0.3], "includesElement__discovery_year": [1751], "includesElement__electron_affinity": [1.156, 1.046], "includesElement__electronegativity_allred-rochow": [0.0003347107, 0.0003214286, 0.0003124102], "includesElement__electronegativity_cottrell-sutton": [0.1918806, 0.212132, 0.1920011], "includesElement__electronegativity_ghosh": [0.1472068, 0.1918774, 0.1551518], "includesElement__electronegativity_gordy": [0.03681818, 0.045, 0.03686441], "includesElement__electronegativity_mulliken": [4.397939, 4.827195, 4.6971], "includesElement__electronegativity_nagle": [0.588755, 0.4880907, 0.6770213], "includesElement__electronegativity_pauling": [1.91, 2.05, 1.65], "includesElement__electronegativity_sanderson": [0.937704, 0.7762722, 0.8100877], "includesElement__en_ghosh": [0.1472068, 0.1918774, 0.1551518], "includesElement__en_pauling": [1.91, 2.05, 1.65], "includesElement__evaporation_heat": [378.6, 195.2, 114.8], "includesElement__fusion_heat": [17.61, 20.08, 7.28], "includesElement__glawe_number": [69, 91, 74], "includesElement__group_id": [10, 15, 12], "includesElement__heat_of_formation": [430.1, 264.4, 130.4], "includesElement__is_radioactive": [false], "includesElement__lattice_constant": [3.52, 4.51, 2.66], "includesElement__mendeleev_number": [67, 96, 77], "includesElement__molar_heat_capacity": [26.07, 25.23, 25.39], "includesElement__period": [4, 5], "includesElement__pettifor_number": [67, 88, 76], "includesElement__specific_heat_capacity": [0.444, 0.207, 0.388], "includesElement__vdw_radius": [197.0, 206.0, 201.0], "includesElement__vdw_radius_alvarez": [240.0, 247.0, 239.0], "includesElement__vdw_radius_mm3": [222.0, 252.0, 229.0], "includesElement__vdw_radius_uff": [283.4, 442.0, 276.3], "includesElement__abundance_sea": [0.00056, 0.00024, 0.0049], "includesElement__atomic_weight_uncertainty": [0.0004, 0.001, 0.02], "includesElement__c6_gb": [393.0, 504.0, 276.0], "includesElement__covalent_radius_bragg": [135.0, 140.0, 132.0], "includesElement__electronegativity_allen": [11.13, 11.74, 9.395], "includesElement__en_allen": [11.13, 11.74, 9.395], "includesElement__metallic_radius": [115.0, 139.0, 121.0], "includesElement__metallic_radius_c12": [124.0, 166.0, 134.0], "includesElement__thermal_conductivity": [90.9, 24.43, 116.0], "includesElement__vdw_radius_batsanov": [200.0, 220.0, 210.0], "includesElement__c6": [373.0, 492.0, 284.0], "includesElement__gas_basicity": [714.1, 586.0], "includesElement__proton_affinity": [737.0, 608.6], "includesElement__vdw_radius_dreiding": [435.0], "includesElement__vdw_radius_truhlar": [206.0], "formula": ["Ni1Sb1Zn1"], "spacegroup": ["216"], "thermalConductivity": [2.97314], "icsd": ["240198"], "band_gap": [0.0], "density": [8.008301], "density_atomic": [16.99337], "deprecated": [false], "efermi": [7.121059], "energy_above_hull": [0.0], "energy_per_atom": [-4.018499], "formation_energy_per_atom": [-0.2955384], "homogeneous_poisson": [0.318], "is_gap_direct": [false], "is_magnetic": [false], "is_metal": [true], "is_stable": [true], "nelements": [3], "nsites": [3], "num_magnetic_sites": [0], "num_unique_magnetic_sites": [0], "theoretical": [false], "total_magnetization": [0.0], "total_magnetization_normalized_formula_units": [0.0], "total_magnetization_normalized_vol": [0.0], "uncorrected_energy_per_atom": [-15.76661], "universal_anisotropy": [0.087], "volume": [50.98011], "equilibrium_reaction_energy_per_atom": [-0.01662424]}