{"includesElement": ["", "Li", "Zn", "N"], "includesElement___series_id": [3, 8, 1], "includesElement__abundance_crust": [20.0, 70.0, 19.0], "includesElement__atomic_number": [3, 30, 7], "includesElement__atomic_radius": [145.0, 135.0, 65.0], "includesElement__atomic_radius_rahm": [220.0, 222.0, 179.0], "includesElement__atomic_volume": [13.1, 9.2, 17.3], "includesElement__atomic_weight": [6.94, 65.38, 14.007], "includesElement__covalent_radius_cordero": [128.0, 122.0, 71.0], "includesElement__covalent_radius_pyykko": [133.0, 118.0, 71.0], "includesElement__covalent_radius_pyykko_double": [124.0, 120.0, 60.0], "includesElement__density": [0.534, 7.134, 0.001145], "includesElement__dipole_polarizability": [164.1125, 38.67, 7.4], "includesElement__dipole_polarizability_unc": [0.0005, 0.3, 0.2], "includesElement__discovery_year": [1817, 1772], "includesElement__electron_affinity": [0.618049, -1.4], "includesElement__electronegativity_allred-rochow": [7.3492e-05, 0.0003124102, 0.000773656], "includesElement__electronegativity_cottrell-sutton": [0.09886575, 0.1920011, 0.2343706], "includesElement__electronegativity_ghosh": [0.105093, 0.1551518, 0.26493], "includesElement__electronegativity_gordy": [0.009774436, 0.03686441, 0.05492958], "includesElement__electronegativity_mulliken": [3.004882, 4.6971, 6.567065], "includesElement__electronegativity_nagle": [0.1826499, 0.6770213, 0.8774979], "includesElement__electronegativity_pauling": [0.98, 1.65, 3.04], "includesElement__electronegativity_sanderson": [0.04886793, 0.8100877, 0.577482], "includesElement__en_ghosh": [0.105093, 0.1551518, 0.26493], "includesElement__en_pauling": [0.98, 1.65, 3.04], "includesElement__evaporation_heat": [148.0, 114.8], "includesElement__fusion_heat": [2.89, 7.28], "includesElement__glawe_number": [12, 74, 88], "includesElement__group_id": [1, 12, 15], "includesElement__heat_of_formation": [159.3, 130.4, 472.44], "includesElement__is_radioactive": [false], "includesElement__lattice_constant": [3.49, 2.66, 4.039], "includesElement__mendeleev_number": [1, 77, 93], "includesElement__molar_heat_capacity": [24.86, 25.39, 29.124], "includesElement__period": [2, 4], "includesElement__pettifor_number": [12, 76, 100], "includesElement__specific_heat_capacity": [3.582, 0.388, 1.04], "includesElement__vdw_radius": [182.0, 201.0, 155.0], "includesElement__vdw_radius_alvarez": [212.0, 239.0, 166.0], "includesElement__vdw_radius_mm3": [255.0, 229.0, 193.0], "includesElement__vdw_radius_uff": [245.1, 276.3, 366.0], "includesElement__abundance_sea": [0.18, 0.0049, 0.5], "includesElement__c6_gb": [1410.0, 276.0, 25.7], "includesElement__covalent_radius_bragg": [150.0, 132.0, 65.0], "includesElement__electronegativity_allen": [5.392, 9.395, 18.13], "includesElement__en_allen": [5.392, 9.395, 18.13], "includesElement__metallic_radius": [123.0, 121.0], "includesElement__metallic_radius_c12": [155.0, 134.0, 53.0], "includesElement__thermal_conductivity": [84.8, 116.0, 0.026], "includesElement__vdw_radius_batsanov": [220.0, 210.0, 160.0], "includesElement__c6": [1392.0, 284.0, 24.2], "includesElement__vdw_radius_bondi": [181.0, 155.0], "includesElement__atomic_weight_uncertainty": [0.02], "includesElement__gas_basicity": [586.0, 318.7], "includesElement__proton_affinity": [608.6, 342.2], "includesElement__covalent_radius_pyykko_triple": [54.0], "includesElement__vdw_radius_dreiding": [366.21], "includesElement__vdw_radius_rt": [164.0], "formula": ["Li1N1Zn1", "LiZnN"], "mp_id": ["7575"], "spacegroup": ["216"], "thermalConductivity": [18.7899, 17.39], "icsd": ["16790"], "band_gap": [0.5187], "density": [4.982091], "density_atomic": [9.594276], "deprecated": [false], "efermi": [3.190627], "energy_above_hull": [0.0], "energy_per_atom": [-7.232156], "formation_energy_per_atom": [-0.4234695], "homogeneous_poisson": [0.202], "is_gap_direct": [true], "is_magnetic": [false], "is_metal": [false], "is_stable": [true], "nelements": [3], "nsites": [3], "num_magnetic_sites": [0], "num_unique_magnetic_sites": [0], "theoretical": [false], "total_magnetization": [0.0], "total_magnetization_normalized_formula_units": [0.0], "total_magnetization_normalized_vol": [0.0], "uncorrected_energy_per_atom": [-7.232156], "universal_anisotropy": [0.354], "volume": [28.78283], "cbm": [3.6413], "e_electronic": [10.482], "e_ionic": [9.379624], "e_total": [19.86163], "equilibrium_reaction_energy_per_atom": [-0.1851785], "n": [3.237592], "vbm": [3.1226], "e_ij_max": [0.5736512]}