{"includesElement": ["", "P", "Pa"], "includesElement___series_id": [1, 10], "includesElement__abundance_crust": [1050.0, 1.4e-06], "includesElement__atomic_number": [15, 91], "includesElement__atomic_radius": [100.0, 180.0], "includesElement__atomic_radius_rahm": [223.0, 285.0], "includesElement__atomic_volume": [17.0, 15.0], "includesElement__atomic_weight": [30.97376, 231.0359], "includesElement__covalent_radius_cordero": [107.0, 200.0], "includesElement__covalent_radius_pyykko": [111.0, 169.0], "includesElement__covalent_radius_pyykko_double": [102.0, 138.0], "includesElement__covalent_radius_pyykko_triple": [94.0, 129.0], "includesElement__density": [1.823, 15.4], "includesElement__dipole_polarizability": [25.0, 154.0], "includesElement__dipole_polarizability_unc": [1.0, 20.0], "includesElement__discovery_year": [1669, 1917], "includesElement__electron_affinity": [0.746607], "includesElement__electronegativity_allred-rochow": [0.0003895788, 0.0001050383], "includesElement__electronegativity_cottrell-sutton": [0.2079501, 0.1332347], "includesElement__electronegativity_ghosh": [0.206931, 0.12149], "includesElement__electronegativity_gordy": [0.04324324, 0.01775148], "includesElement__electronegativity_mulliken": [5.616646, 2.945], "includesElement__electronegativity_nagle": [0.5848035, 0.3190189], "includesElement__electronegativity_pauling": [2.19, 1.5], "includesElement__electronegativity_sanderson": [0.4510269, 0.6230657], "includesElement__en_ghosh": [0.206931, 0.12149], "includesElement__en_pauling": [2.19, 1.5], "includesElement__evaporation_heat": [49.8, 481.2], "includesElement__fusion_heat": [2.51, 16.7], "includesElement__glawe_number": [89, 35], "includesElement__group_id": [15], "includesElement__heat_of_formation": [316.5, 563.0], "includesElement__is_radioactive": [false, true], "includesElement__lattice_constant": [7.17, 3.92], "includesElement__mendeleev_number": [94, 18], "includesElement__molar_heat_capacity": [23.824], "includesElement__period": [3, 7], "includesElement__pettifor_number": [90, 46], "includesElement__specific_heat_capacity": [0.769], "includesElement__vdw_radius": [180.0, 243.0], "includesElement__vdw_radius_alvarez": [190.0, 288.0], "includesElement__vdw_radius_mm3": [222.0, 264.0], "includesElement__vdw_radius_uff": [414.7, 342.4], "includesElement__abundance_sea": [0.06, 5e-11], "includesElement__atomic_weight_uncertainty": [5e-09, 2e-05], "includesElement__c6_gb": [187.0], "includesElement__electronegativity_allen": [13.33], "includesElement__en_allen": [13.33], "includesElement__metallic_radius": [110.0], "includesElement__metallic_radius_c12": [128.0], "includesElement__vdw_radius_batsanov": [195.0], "includesElement__c6": [185.0], "includesElement__is_monoisotopic": [true], "includesElement__vdw_radius_dreiding": [415.0], "includesElement__gas_basicity": [604.8], "includesElement__proton_affinity": [626.8], "includesElement__vdw_radius_bondi": [180.0], "formula": ["P8Pa6"], "spacegroup": ["220"], "thermalConductivity": [4.2331], "icsd": ["647902"], "band_gap": [0.0], "density": [9.523282], "density_atomic": [20.3511], "deprecated": [false], "efermi": [10.4759], "energy_above_hull": [0.0], "energy_per_atom": [-39.42955], "formation_energy_per_atom": [-1.347214], "is_gap_direct": [false], "is_magnetic": [true], "is_metal": [true], "is_stable": [true], "nelements": [2], "nsites": [14], "num_magnetic_sites": [6], "num_unique_magnetic_sites": [1], "theoretical": [false], "total_magnetization": [2.019665], "total_magnetization_normalized_formula_units": [1.009832], "total_magnetization_normalized_vol": [0.007088647], "uncorrected_energy_per_atom": [-39.42955], "volume": [284.9154], "equilibrium_reaction_energy_per_atom": [-0.3665466]}