{"includesElement": ["", "Ho", "Ru", "B"], "includesElement___series_id": [9, 8, 5], "includesElement__abundance_crust": [1.3, 0.001, 10.0], "includesElement__atomic_number": [67, 44, 5], "includesElement__atomic_radius": [175.0, 130.0, 85.0], "includesElement__atomic_radius_rahm": [273.0, 237.0, 205.0], "includesElement__atomic_volume": [18.7, 8.3, 4.6], "includesElement__atomic_weight": [164.9303, 101.07, 10.81], "includesElement__covalent_radius_cordero": [192.0, 146.0, 84.0], "includesElement__covalent_radius_pyykko": [166.0, 125.0, 85.0], "includesElement__covalent_radius_pyykko_double": [133.0, 114.0, 78.0], "includesElement__density": [8.8, 12.1, 2.34], "includesElement__dipole_polarizability": [156.0, 72.0, 20.5], "includesElement__dipole_polarizability_unc": [10.0, 0.1], "includesElement__discovery_year": [1878, 1844, 1808], "includesElement__electronegativity_allred-rochow": [0.0001034258, 0.000208, 0.0003598616], "includesElement__electronegativity_cottrell-sutton": [0.1310293, 0.1612452, 0.1748949], "includesElement__electronegativity_ghosh": [0.207795, 0.1376494, 0.184886], "includesElement__electronegativity_gordy": [0.01716867, 0.026, 0.03058824], "includesElement__electronegativity_mulliken": [3.01075, 4.20525, 4.288871], "includesElement__electronegativity_nagle": [0.4367902, 0.4807499, 0.5269739], "includesElement__electronegativity_pauling": [1.23, 2.2, 2.04], "includesElement__electronegativity_sanderson": [0.5434919, 0.9579373, 0.2546274], "includesElement__en_ghosh": [0.207795, 0.1376494, 0.184886], "includesElement__en_pauling": [1.23, 2.2, 2.04], "includesElement__evaporation_heat": [301.0, 504.5], "includesElement__glawe_number": [23, 61, 86], "includesElement__heat_of_formation": [300.6, 650.6, 565.0], "includesElement__is_radioactive": [false], "includesElement__lattice_constant": [3.58, 2.7, 8.73], "includesElement__mendeleev_number": [33, 60, 81], "includesElement__molar_heat_capacity": [27.15, 24.06, 11.087], "includesElement__period": [6, 5, 2], "includesElement__pettifor_number": [24, 63, 86], "includesElement__specific_heat_capacity": [0.165, 0.238, 1.026], "includesElement__vdw_radius": [230.0, 213.0, 192.0], "includesElement__vdw_radius_alvarez": [281.0, 246.0, 191.0], "includesElement__vdw_radius_mm3": [267.0, 234.0, 215.0], "includesElement__vdw_radius_uff": [340.9, 296.3, 408.3], "includesElement__abundance_sea": [2.2e-07, 7e-07, 4.44], "includesElement__atomic_weight_uncertainty": [2e-05, 0.02], "includesElement__c6_gb": [2280.0, 809.0, 99.2], "includesElement__is_monoisotopic": [true], "includesElement__covalent_radius_pyykko_triple": [103.0, 73.0], "includesElement__electron_affinity": [1.05, 0.279723], "includesElement__fusion_heat": [25.5, 23.6], "includesElement__group_id": [8, 13], "includesElement__electronegativity_allen": [9.1, 12.13], "includesElement__en_allen": [9.1, 12.13], "includesElement__metallic_radius": [125.0, 80.0], "includesElement__metallic_radius_c12": [134.0, 98.0], "includesElement__thermal_conductivity": [117.0, 27.4], "includesElement__vdw_radius_batsanov": [205.0, 180.0], "includesElement__gas_basicity": [751.4], "includesElement__proton_affinity": [774.0], "includesElement__c6": [99.5], "includesElement__vdw_radius_dreiding": [402.0], "includesElement__vdw_radius_truhlar": [192.0], "formula": ["B2Ho1Ru3"], "spacegroup": ["191"], "thermalConductivity": [8.42641], "icsd": ["44419"], "band_gap": [0.0], "density": [10.41484], "density_atomic": [13.0146], "deprecated": [false], "efermi": [6.507081], "energy_above_hull": [0.0], "energy_per_atom": [-8.105143], "formation_energy_per_atom": [-0.4751978], "is_gap_direct": [false], "is_magnetic": [false], "is_metal": [true], "is_stable": [true], "nelements": [3], "nsites": [6], "num_magnetic_sites": [0], "num_unique_magnetic_sites": [0], "theoretical": [false], "total_magnetization": [1.24e-05], "total_magnetization_normalized_formula_units": [1.24e-05], "total_magnetization_normalized_vol": [1.58796e-07], "uncorrected_energy_per_atom": [-21.16043], "volume": [78.0876], "equilibrium_reaction_energy_per_atom": [-0.01687978]}