{"includesElement": ["", "Ni", "F", "K"], "includesElement___series_id": [8, 6, 3], "includesElement__abundance_crust": [84.0, 585.0, 20900.0], "includesElement__atomic_number": [28, 9, 19], "includesElement__atomic_radius": [135.0, 50.0, 220.0], "includesElement__atomic_radius_rahm": [229.0, 163.0, 234.0], "includesElement__atomic_volume": [6.6, 17.1, 45.3], "includesElement__atomic_weight": [58.6934, 18.9984, 39.0983], "includesElement__covalent_radius_cordero": [124.0, 57.0, 203.0], "includesElement__covalent_radius_pyykko": [110.0, 64.0, 196.0], "includesElement__covalent_radius_pyykko_double": [101.0, 59.0, 193.0], "includesElement__covalent_radius_pyykko_triple": [101.0, 53.0], "includesElement__density": [8.9, 0.001553, 0.89], "includesElement__dipole_polarizability": [49.0, 3.74, 289.7], "includesElement__dipole_polarizability_unc": [3.0, 0.08, 0.3], "includesElement__discovery_year": [1751, 1886, 1807], "includesElement__electron_affinity": [1.156, 3.40119, 0.50147], "includesElement__electronegativity_allred-rochow": [0.0003347107, 0.001269531, 5.726781e-05], "includesElement__electronegativity_cottrell-sutton": [0.1918806, 0.2850439, 0.1059457], "includesElement__electronegativity_ghosh": [0.1472068, 0.344443, 0.0981896], "includesElement__electronegativity_gordy": [0.03681818, 0.08125, 0.01122449], "includesElement__electronegativity_mulliken": [4.397939, 10.412, 2.421067], "includesElement__electronegativity_nagle": [0.588755, 1.232373, 0.1511299], "includesElement__electronegativity_pauling": [1.91, 3.98, 0.82], "includesElement__electronegativity_sanderson": [0.937704, 1.017681, 0.1218383], "includesElement__en_ghosh": [0.1472068, 0.344443, 0.0981896], "includesElement__en_pauling": [1.91, 3.98, 0.82], "includesElement__evaporation_heat": [378.6, 6.54, 2.33], "includesElement__fusion_heat": [17.61, 0.51, 102.5], "includesElement__glawe_number": [69, 102, 10], "includesElement__group_id": [10, 17, 1], "includesElement__heat_of_formation": [430.1, 79.335, 89.0], "includesElement__is_radioactive": [false], "includesElement__lattice_constant": [3.52, 5.23], "includesElement__mendeleev_number": [67, 106, 3], "includesElement__molar_heat_capacity": [26.07, 31.304, 29.6], "includesElement__period": [4, 2], "includesElement__pettifor_number": [67, 102, 10], "includesElement__specific_heat_capacity": [0.444, 0.824, 0.757], "includesElement__vdw_radius": [197.0, 147.0, 275.0], "includesElement__vdw_radius_alvarez": [240.0, 146.0, 273.0], "includesElement__vdw_radius_mm3": [222.0, 171.0, 309.0], "includesElement__vdw_radius_uff": [283.4, 336.4, 381.2], "includesElement__abundance_sea": [0.00056, 1.3, 399.0], "includesElement__atomic_weight_uncertainty": [0.0004, 6e-09, 0.0001], "includesElement__c6_gb": [393.0, 10.2, 3910.0], "includesElement__covalent_radius_bragg": [135.0, 67.0, 207.0], "includesElement__electronegativity_allen": [11.13, 24.8, 4.34], "includesElement__en_allen": [11.13, 24.8, 4.34], "includesElement__metallic_radius": [115.0, 203.0], "includesElement__metallic_radius_c12": [124.0, 235.0], "includesElement__thermal_conductivity": [90.9, 0.028, 79.0], "includesElement__vdw_radius_batsanov": [200.0, 150.0, 280.0], "includesElement__c6": [373.0, 9.52, 3923.0], "includesElement__gas_basicity": [714.1, 315.1], "includesElement__proton_affinity": [737.0, 340.1], "includesElement__is_monoisotopic": [true], "includesElement__vdw_radius_dreiding": [347.2], "includesElement__vdw_radius_bondi": [147.0, 275.0], "includesElement__vdw_radius_rt": [146.0], "formula": ["F6K2Ni1"], "spacegroup": ["225"], "thermalConductivity": [2.18914], "icsd": ["41416"], "band_gap": [2.3603], "density": [3.251504], "density_atomic": [14.23604], "deprecated": [false], "efermi": [-3.040401], "energy_above_hull": [0.0], "energy_per_atom": [-7.215424], "formation_energy_per_atom": [-2.464294], "is_gap_direct": [false], "is_magnetic": [false], "is_metal": [false], "is_stable": [true], "nelements": [3], "nsites": [9], "num_magnetic_sites": [0], "num_unique_magnetic_sites": [0], "theoretical": [false], "total_magnetization": [0.0], "total_magnetization_normalized_formula_units": [0.0], "total_magnetization_normalized_vol": [0.0], "uncorrected_energy_per_atom": [-7.215424], "volume": [128.1243], "cbm": [-0.8198], "e_electronic": [2.29585], "e_ionic": [3.266592], "e_total": [5.562442], "equilibrium_reaction_energy_per_atom": [-0.3083095], "n": [1.515206], "vbm": [-3.1801]}