{"includesElement": ["", "Be", "Cu"], "includesElement___series_id": [4, 8], "includesElement__abundance_crust": [2.8, 60.0], "includesElement__atomic_number": [4, 29], "includesElement__atomic_radius": [105.0, 135.0], "includesElement__atomic_radius_rahm": [219.0, 217.0], "includesElement__atomic_volume": [5.0, 7.1], "includesElement__atomic_weight": [9.012183, 63.546], "includesElement__covalent_radius_cordero": [96.0, 132.0], "includesElement__covalent_radius_pyykko": [102.0, 112.0], "includesElement__covalent_radius_pyykko_double": [90.0, 115.0], "includesElement__covalent_radius_pyykko_triple": [85.0, 120.0], "includesElement__density": [1.85, 8.96], "includesElement__dipole_polarizability": [37.74, 46.5], "includesElement__dipole_polarizability_unc": [0.03, 0.5], "includesElement__discovery_year": [1798], "includesElement__electron_affinity": [-2.4, 1.235], "includesElement__electronegativity_allred-rochow": [0.0001874279, 0.0002949617], "includesElement__electronegativity_cottrell-sutton": [0.1382666, 0.1817573], "includesElement__electronegativity_ghosh": [0.144986, 0.1511716], "includesElement__electronegativity_gordy": [0.01911765, 0.03303571], "includesElement__electronegativity_mulliken": [3.461349, 4.48069], "includesElement__electronegativity_nagle": [0.3756148, 0.6184623], "includesElement__electronegativity_pauling": [1.57, 1.9], "includesElement__electronegativity_sanderson": [0.1268473, 0.9175542], "includesElement__en_ghosh": [0.144986, 0.1511716], "includesElement__en_pauling": [1.57, 1.9], "includesElement__evaporation_heat": [309.0, 304.6], "includesElement__fusion_heat": [12.21, 13.01], "includesElement__glawe_number": [77, 68], "includesElement__group_id": [2, 11], "includesElement__heat_of_formation": [324.0, 337.4], "includesElement__is_radioactive": [false], "includesElement__lattice_constant": [2.29, 3.61], "includesElement__mendeleev_number": [75, 71], "includesElement__molar_heat_capacity": [16.443, 24.44], "includesElement__period": [2, 4], "includesElement__pettifor_number": [77, 72], "includesElement__specific_heat_capacity": [1.825, 0.385], "includesElement__vdw_radius": [153.0, 196.0], "includesElement__vdw_radius_alvarez": [198.0, 238.0], "includesElement__vdw_radius_mm3": [223.0, 226.0], "includesElement__vdw_radius_uff": [274.5, 349.5], "includesElement__abundance_sea": [5.6e-06, 0.00025], "includesElement__atomic_weight_uncertainty": [5e-07, 0.003], "includesElement__c6_gb": [214.0, 264.0], "includesElement__covalent_radius_bragg": [115.0, 137.0], "includesElement__electronegativity_allen": [9.323, 10.96], "includesElement__en_allen": [9.323, 10.96], "includesElement__metallic_radius": [89.0, 118.0], "includesElement__metallic_radius_c12": [112.0, 128.0], "includesElement__thermal_conductivity": [201.0, 401.0], "includesElement__vdw_radius_batsanov": [190.0, 200.0], "includesElement__c6": [227.0, 253.0], "includesElement__is_monoisotopic": [true], "includesElement__vdw_radius_truhlar": [153.0], "includesElement__gas_basicity": [632.4], "includesElement__proton_affinity": [655.3], "formula": ["Be1Cu1"], "spacegroup": ["221"], "thermalConductivity": [14.4144], "icsd": ["58700"], "band_gap": [0.0], "density": [6.312451], "density_atomic": [9.543496], "deprecated": [false], "efermi": [8.650834], "energy_above_hull": [0.005036343], "energy_per_atom": [-4.019554], "formation_energy_per_atom": [-0.1002443], "homogeneous_poisson": [0.398], "is_gap_direct": [false], "is_magnetic": [false], "is_metal": [true], "is_stable": [false], "nelements": [2], "nsites": [2], "num_magnetic_sites": [0], "num_unique_magnetic_sites": [0], "theoretical": [false], "total_magnetization": [0.0], "total_magnetization_normalized_formula_units": [0.0], "total_magnetization_normalized_vol": [0.0], "uncorrected_energy_per_atom": [-7.710789], "universal_anisotropy": [-268.224], "volume": [19.08699]}