{"includesElement": ["", "As", "Cd", "Si"], "includesElement___series_id": [5, 8], "includesElement__abundance_crust": [1.8, 0.15, 282000.0], "includesElement__atomic_number": [33, 48, 14], "includesElement__atomic_radius": [115.0, 155.0, 110.0], "includesElement__atomic_radius_rahm": [231.0, 238.0, 232.0], "includesElement__atomic_volume": [13.1, 12.1], "includesElement__atomic_weight": [74.92159, 112.414, 28.085], "includesElement__covalent_radius_cordero": [119.0, 144.0, 111.0], "includesElement__covalent_radius_pyykko": [121.0, 136.0, 116.0], "includesElement__covalent_radius_pyykko_double": [114.0, 144.0, 107.0], "includesElement__covalent_radius_pyykko_triple": [106.0, 102.0], "includesElement__density": [5.75, 8.69, 2.3296], "includesElement__dipole_polarizability": [30.0, 46.0, 37.3], "includesElement__dipole_polarizability_unc": [1.0, 2.0, 0.7], "includesElement__electron_affinity": [0.804, 1.389521], "includesElement__electronegativity_allred-rochow": [0.0004302985, 0.000235186, 0.0003084126], "includesElement__electronegativity_cottrell-sutton": [0.22818, 0.1788443, 0.1891451], "includesElement__electronegativity_ghosh": [0.2068208, 0.1504066, 0.178503], "includesElement__electronegativity_gordy": [0.05206612, 0.03198529, 0.03577586], "includesElement__electronegativity_mulliken": [5.2965, 4.496911, 4.770602], "includesElement__electronegativity_nagle": [0.5503212, 0.6389612, 0.4750986], "includesElement__electronegativity_pauling": [2.18, 1.69, 1.9], "includesElement__electronegativity_sanderson": [0.8253373, 0.801562, 0.3468158], "includesElement__en_ghosh": [0.2068208, 0.1504066, 0.178503], "includesElement__en_pauling": [2.18, 1.69, 1.9], "includesElement__evaporation_heat": [32.4, 59.1, 383.0], "includesElement__glawe_number": [90, 75, 85], "includesElement__group_id": [15, 12, 14], "includesElement__heat_of_formation": [302.5, 111.8, 450.0], "includesElement__is_radioactive": [false], "includesElement__lattice_constant": [4.13, 2.98, 5.43], "includesElement__mendeleev_number": [95, 78, 88], "includesElement__molar_heat_capacity": [24.64, 26.02, 19.99], "includesElement__period": [4, 5, 3], "includesElement__pettifor_number": [89, 75, 85], "includesElement__specific_heat_capacity": [0.329, 0.232, 0.712], "includesElement__vdw_radius": [185.0, 218.0, 210.0], "includesElement__vdw_radius_alvarez": [188.0, 249.0, 219.0], "includesElement__vdw_radius_mm3": [236.0, 250.0, 229.0], "includesElement__vdw_radius_uff": [423.0, 284.8, 429.5], "includesElement__abundance_sea": [0.0037, 0.00011, 2.2], "includesElement__atomic_weight_uncertainty": [6e-06, 0.004], "includesElement__c6_gb": [260.0, 405.0, 308.0], "includesElement__covalent_radius_bragg": [126.0, 160.0, 117.0], "includesElement__electronegativity_allen": [13.08, 8.995, 11.33], "includesElement__en_allen": [13.08, 8.995, 11.33], "includesElement__metallic_radius": [121.0, 138.0, 117.0], "includesElement__metallic_radius_c12": [148.0, 151.0, 138.0], "includesElement__vdw_radius_batsanov": [205.0, 220.0, 210.0], "includesElement__c6": [246.0, 305.0], "includesElement__is_monoisotopic": [true], "includesElement__vdw_radius_dreiding": [415.0, 427.0], "includesElement__vdw_radius_bondi": [185.0, 210.0], "includesElement__discovery_year": [1817, 1824], "includesElement__fusion_heat": [6.11, 50.6], "includesElement__thermal_conductivity": [96.9, 149.0], "includesElement__gas_basicity": [814.1], "includesElement__proton_affinity": [837.0], "formula": ["As4Cd2Si2"], "spacegroup": ["122"], "thermalConductivity": [2.4051], "icsd": ["22187"], "band_gap": [0.4002], "density": [5.01928], "density_atomic": [24.01343], "deprecated": [false], "efermi": [3.065612], "energy_above_hull": [0.0], "energy_per_atom": [-4.038069], "formation_energy_per_atom": [-0.1066762], "homogeneous_poisson": [0.276], "is_gap_direct": [true], "is_magnetic": [false], "is_metal": [false], "is_stable": [true], "nelements": [3], "nsites": [8], "num_magnetic_sites": [0], "num_unique_magnetic_sites": [0], "theoretical": [false], "total_magnetization": [0.0], "total_magnetization_normalized_formula_units": [0.0], "total_magnetization_normalized_vol": [0.0], "uncorrected_energy_per_atom": [-14.77119], "universal_anisotropy": [0.653], "volume": [192.1074], "cbm": [3.4082], "e_electronic": [17.14621], "e_ionic": [2.871751], "e_total": [20.01796], "equilibrium_reaction_energy_per_atom": [-0.04736841], "n": [4.140798], "vbm": [3.008], "e_ij_max": [0.243328]}