{"includesElement": ["", "O", "Rh", "U"], "includesElement___series_id": [1, 8, 10], "includesElement__abundance_crust": [461000.0, 0.001, 2.7], "includesElement__atomic_number": [8, 45, 92], "includesElement__atomic_radius": [60.0, 135.0, 175.0], "includesElement__atomic_radius_rahm": [171.0, 233.0, 283.0], "includesElement__atomic_volume": [14.0, 8.3, 12.5], "includesElement__atomic_weight": [15.999, 102.9055, 238.0289], "includesElement__covalent_radius_cordero": [66.0, 142.0, 196.0], "includesElement__covalent_radius_pyykko": [63.0, 125.0, 170.0], "includesElement__covalent_radius_pyykko_double": [57.0, 110.0, 134.0], "includesElement__covalent_radius_pyykko_triple": [53.0, 106.0, 118.0], "includesElement__density": [0.001308, 12.4, 19.1], "includesElement__dipole_polarizability": [5.3, 66.0, 129.0], "includesElement__dipole_polarizability_unc": [0.2, 10.0, 17.0], "includesElement__discovery_year": [1774, 1803, 1789], "includesElement__electron_affinity": [1.461113, 1.137], "includesElement__electronegativity_allred-rochow": [0.001146384, 0.0002176, 0.0001038062], "includesElement__electronegativity_cottrell-sutton": [0.2687419, 0.1649242, 0.1328422], "includesElement__electronegativity_ghosh": [0.304575, 0.1408379, 0.13207], "includesElement__electronegativity_gordy": [0.07222222, 0.0272, 0.01764706], "includesElement__electronegativity_mulliken": [7.539584, 4.29795, 3.097025], "includesElement__electronegativity_nagle": [1.042218, 0.5147142, 0.3596283], "includesElement__electronegativity_pauling": [3.44, 2.28, 1.7], "includesElement__electronegativity_sanderson": [0.9416494, 0.9761915, 0.618118], "includesElement__en_ghosh": [0.304575, 0.1408379, 0.13207], "includesElement__en_pauling": [3.44, 2.28, 1.7], "includesElement__glawe_number": [97, 63, 36], "includesElement__group_id": [16, 9], "includesElement__heat_of_formation": [249.229, 556.0, 533.0], "includesElement__is_radioactive": [false, true], "includesElement__lattice_constant": [6.83, 3.8, 2.85], "includesElement__mendeleev_number": [99, 64, 20], "includesElement__molar_heat_capacity": [29.378, 24.98, 27.665], "includesElement__period": [2, 5, 7], "includesElement__pettifor_number": [101, 66, 45], "includesElement__specific_heat_capacity": [0.918, 0.243, 0.116], "includesElement__vdw_radius": [152.0, 210.0, 241.0], "includesElement__vdw_radius_alvarez": [150.0, 244.0, 271.0], "includesElement__vdw_radius_mm3": [182.0, 234.0, 252.0], "includesElement__vdw_radius_uff": [350.0, 292.9, 339.5], "includesElement__abundance_sea": [857000.0, 0.0032], "includesElement__c6_gb": [16.7, 708.0], "includesElement__covalent_radius_bragg": [65.0], "includesElement__electronegativity_allen": [21.36, 9.259], "includesElement__en_allen": [21.36, 9.259], "includesElement__thermal_conductivity": [0.027, 150.0, 27.5], "includesElement__vdw_radius_batsanov": [155.0, 200.0, 230.0], "includesElement__c6": [15.6], "includesElement__vdw_radius_dreiding": [340.46], "includesElement__gas_basicity": [459.6, 745.4, 973.2], "includesElement__proton_affinity": [485.2, 768.0, 995.2], "includesElement__vdw_radius_bondi": [152.0], "includesElement__vdw_radius_rt": [158.0], "includesElement__evaporation_heat": [494.0, 417.0], "includesElement__fusion_heat": [21.8, 12.6], "includesElement__atomic_weight_uncertainty": [2e-05, 3e-05], "includesElement__metallic_radius": [125.0], "includesElement__metallic_radius_c12": [134.0], "includesElement__is_monoisotopic": [true], "formula": ["O12Rh4U2"], "spacegroup": ["136"], "thermalConductivity": [3.82191], "icsd": ["23463"], "band_gap": [0.4289], "density": [8.429713], "density_atomic": [11.8156], "deprecated": [false], "efermi": [5.258396], "energy_above_hull": [0.0], "energy_per_atom": [-8.427082], "formation_energy_per_atom": [-2.234459], "is_gap_direct": [false], "is_magnetic": [false], "is_metal": [false], "is_stable": [true], "nelements": [3], "nsites": [18], "num_magnetic_sites": [0], "num_unique_magnetic_sites": [0], "theoretical": [false], "total_magnetization": [0.0], "total_magnetization_normalized_formula_units": [0.0], "total_magnetization_normalized_vol": [0.0], "uncorrected_energy_per_atom": [-20.25489], "volume": [212.6809], "cbm": [5.5912], "equilibrium_reaction_energy_per_atom": [-0.02243673], "vbm": [5.1623]}