{"includesElement": ["", "Sb", "In"], "includesElement___series_id": [5, 7], "includesElement__abundance_crust": [0.2, 0.25], "includesElement__atomic_number": [51, 49], "includesElement__atomic_radius": [145.0, 155.0], "includesElement__atomic_radius_rahm": [246.0], "includesElement__atomic_volume": [18.4, 15.7], "includesElement__atomic_weight": [121.76, 114.818], "includesElement__covalent_radius_cordero": [139.0, 142.0], "includesElement__covalent_radius_pyykko": [140.0, 142.0], "includesElement__covalent_radius_pyykko_double": [133.0, 136.0], "includesElement__covalent_radius_pyykko_triple": [127.0, 146.0], "includesElement__density": [6.68, 7.31], "includesElement__dipole_polarizability": [43.0, 65.0], "includesElement__dipole_polarizability_unc": [2.0, 4.0], "includesElement__electron_affinity": [1.046, 0.3], "includesElement__electronegativity_allred-rochow": [0.0003214286, 0.0002479667], "includesElement__electronegativity_cottrell-sutton": [0.212132, 0.1876467], "includesElement__electronegativity_ghosh": [0.1918774, 0.16423], "includesElement__electronegativity_gordy": [0.045, 0.03521127], "includesElement__electronegativity_mulliken": [4.827195, 3.043178], "includesElement__electronegativity_nagle": [0.4880907, 0.3587038], "includesElement__electronegativity_pauling": [2.05, 1.78], "includesElement__electronegativity_sanderson": [0.7762722, 0.7172747], "includesElement__en_ghosh": [0.1918774, 0.16423], "includesElement__en_pauling": [2.05, 1.78], "includesElement__evaporation_heat": [195.2, 225.1], "includesElement__fusion_heat": [20.08, 3.24], "includesElement__glawe_number": [91, 80], "includesElement__group_id": [15, 13], "includesElement__heat_of_formation": [264.4, 243.0], "includesElement__is_radioactive": [false], "includesElement__lattice_constant": [4.51, 4.59], "includesElement__mendeleev_number": [96, 84], "includesElement__molar_heat_capacity": [25.23, 26.74], "includesElement__period": [5], "includesElement__pettifor_number": [88, 79], "includesElement__specific_heat_capacity": [0.207, 0.233], "includesElement__vdw_radius": [206.0, 193.0], "includesElement__vdw_radius_alvarez": [247.0, 243.0], "includesElement__vdw_radius_mm3": [252.0, 264.0], "includesElement__vdw_radius_uff": [442.0, 446.3], "includesElement__abundance_sea": [0.00024, 0.02], "includesElement__atomic_weight_uncertainty": [0.001], "includesElement__c6_gb": [504.0, 643.0], "includesElement__covalent_radius_bragg": [140.0], "includesElement__electronegativity_allen": [11.74, 9.793], "includesElement__en_allen": [11.74, 9.793], "includesElement__metallic_radius": [139.0, 142.0], "includesElement__metallic_radius_c12": [166.0, 158.0], "includesElement__thermal_conductivity": [24.43, 81.8], "includesElement__vdw_radius_batsanov": [220.0], "includesElement__c6": [492.0, 779.0], "includesElement__vdw_radius_dreiding": [435.0, 459.0], "includesElement__vdw_radius_truhlar": [206.0], "includesElement__discovery_year": [1863], "includesElement__vdw_radius_bondi": [193.0], "formula": ["In2Sb2", "InSb"], "mp_id": ["mp-1007661"], "spacegroup": ["186"], "thermalConductivity": [1.94572, 10.89438, 11.35159], "icsd": ["640432"], "band_gap": [0.0], "density": [5.572425], "density_atomic": [35.2492], "deprecated": [false], "efermi": [4.382829], "energy_above_hull": [0.00578149], "energy_per_atom": [-24.37469], "formation_energy_per_atom": [-0.2322402], "is_gap_direct": [false], "is_magnetic": [false], "is_metal": [true], "is_stable": [false], "nelements": [2], "nsites": [4], "num_magnetic_sites": [0], "num_unique_magnetic_sites": [0], "theoretical": [false], "total_magnetization": [0.0], "total_magnetization_normalized_formula_units": [0.0], "total_magnetization_normalized_vol": [0.0], "uncorrected_energy_per_atom": [-24.37469], "volume": [140.9968]}