{"includesElement": ["", "Be", "Si", "Hf"], "includesElement___series_id": [4, 5, 8], "includesElement__abundance_crust": [2.8, 282000.0, 3.0], "includesElement__atomic_number": [4, 14, 72], "includesElement__atomic_radius": [105.0, 110.0, 155.0], "includesElement__atomic_radius_rahm": [219.0, 232.0, 264.0], "includesElement__atomic_volume": [5.0, 12.1, 13.6], "includesElement__atomic_weight": [9.012183, 28.085, 178.49], "includesElement__covalent_radius_cordero": [96.0, 111.0, 175.0], "includesElement__covalent_radius_pyykko": [102.0, 116.0, 152.0], "includesElement__covalent_radius_pyykko_double": [90.0, 107.0, 128.0], "includesElement__covalent_radius_pyykko_triple": [85.0, 102.0, 122.0], "includesElement__density": [1.85, 2.3296, 13.3], "includesElement__dipole_polarizability": [37.74, 37.3, 103.0], "includesElement__dipole_polarizability_unc": [0.03, 0.7, 6.0], "includesElement__discovery_year": [1798, 1824, 1923], "includesElement__electron_affinity": [-2.4, 1.389521, 0.014], "includesElement__electronegativity_allred-rochow": [0.0001874279, 0.0003084126, 0.00013634], "includesElement__electronegativity_cottrell-sutton": [0.1382666, 0.1891451, 0.1439572], "includesElement__electronegativity_ghosh": [0.144986, 0.178503, 0.229987], "includesElement__electronegativity_gordy": [0.01911765, 0.03577586, 0.02072368], "includesElement__electronegativity_mulliken": [3.461349, 4.770602, 3.419535], "includesElement__electronegativity_nagle": [0.3756148, 0.4750986, 0.3386421], "includesElement__electronegativity_pauling": [1.57, 1.9, 1.3], "includesElement__electronegativity_sanderson": [0.1268473, 0.3468158, 0.7352125], "includesElement__en_ghosh": [0.144986, 0.178503, 0.229987], "includesElement__en_pauling": [1.57, 1.9, 1.3], "includesElement__evaporation_heat": [309.0, 383.0, 575.0], "includesElement__fusion_heat": [12.21, 50.6, 25.1], "includesElement__glawe_number": [77, 85, 50], "includesElement__group_id": [2, 14, 4], "includesElement__heat_of_formation": [324.0, 450.0, 618.4], "includesElement__is_radioactive": [false], "includesElement__lattice_constant": [2.29, 5.43, 3.2], "includesElement__mendeleev_number": [75, 88, 45], "includesElement__molar_heat_capacity": [16.443, 19.99, 25.73], "includesElement__period": [2, 3, 6], "includesElement__pettifor_number": [77, 85, 50], "includesElement__specific_heat_capacity": [1.825, 0.712, 0.144], "includesElement__vdw_radius": [153.0, 210.0, 223.0], "includesElement__vdw_radius_alvarez": [198.0, 219.0, 263.0], "includesElement__vdw_radius_mm3": [223.0, 229.0, 253.0], "includesElement__vdw_radius_uff": [274.5, 429.5, 314.1], "includesElement__abundance_sea": [5.6e-06, 2.2, 7e-06], "includesElement__atomic_weight_uncertainty": [5e-07, 0.02], "includesElement__c6_gb": [214.0, 308.0, 1040.0], "includesElement__covalent_radius_bragg": [115.0, 117.0], "includesElement__electronegativity_allen": [9.323, 11.33, 6.83], "includesElement__en_allen": [9.323, 11.33, 6.83], "includesElement__metallic_radius": [89.0, 117.0, 144.0], "includesElement__metallic_radius_c12": [112.0, 138.0, 159.0], "includesElement__thermal_conductivity": [201.0, 149.0, 23.0], "includesElement__vdw_radius_batsanov": [190.0, 210.0, 225.0], "includesElement__c6": [227.0, 305.0], "includesElement__is_monoisotopic": [true], "includesElement__vdw_radius_truhlar": [153.0], "includesElement__vdw_radius_dreiding": [427.0], "includesElement__gas_basicity": [814.1], "includesElement__proton_affinity": [837.0], "includesElement__vdw_radius_bondi": [210.0], "formula": ["Be2Hf2Si2"], "spacegroup": ["194"], "thermalConductivity": [20.1063], "icsd": ["108103"], "band_gap": [0.0], "density": [8.529839], "density_atomic": [13.98978], "deprecated": [false], "efermi": [6.913015], "energy_above_hull": [0.0], "energy_per_atom": [-7.004889], "formation_energy_per_atom": [-0.6309153], "homogeneous_poisson": [0.185], "is_gap_direct": [false], "is_magnetic": [false], "is_metal": [true], "is_stable": [true], "nelements": [3], "nsites": [6], "num_magnetic_sites": [0], "num_unique_magnetic_sites": [0], "theoretical": [false], "total_magnetization": [6e-07], "total_magnetization_normalized_formula_units": [3e-07], "total_magnetization_normalized_vol": [7.148074e-09], "uncorrected_energy_per_atom": [-20.10153], "universal_anisotropy": [0.162], "volume": [83.93869], "equilibrium_reaction_energy_per_atom": [-0.08558778]}