{"includesElement": ["", "N", "Rh"], "includesElement___series_id": [1, 8], "includesElement__abundance_crust": [19.0, 0.001], "includesElement__atomic_number": [7, 45], "includesElement__atomic_radius": [65.0, 135.0], "includesElement__atomic_radius_rahm": [179.0, 233.0], "includesElement__atomic_volume": [17.3, 8.3], "includesElement__atomic_weight": [14.007, 102.9055], "includesElement__covalent_radius_cordero": [71.0, 142.0], "includesElement__covalent_radius_pyykko": [71.0, 125.0], "includesElement__covalent_radius_pyykko_double": [60.0, 110.0], "includesElement__covalent_radius_pyykko_triple": [54.0, 106.0], "includesElement__density": [0.001145, 12.4], "includesElement__dipole_polarizability": [7.4, 66.0], "includesElement__dipole_polarizability_unc": [0.2, 10.0], "includesElement__discovery_year": [1772, 1803], "includesElement__electron_affinity": [-1.4, 1.137], "includesElement__electronegativity_allred-rochow": [0.000773656, 0.0002176], "includesElement__electronegativity_cottrell-sutton": [0.2343706, 0.1649242], "includesElement__electronegativity_ghosh": [0.26493, 0.1408379], "includesElement__electronegativity_gordy": [0.05492958, 0.0272], "includesElement__electronegativity_mulliken": [6.567065, 4.29795], "includesElement__electronegativity_nagle": [0.8774979, 0.5147142], "includesElement__electronegativity_pauling": [3.04, 2.28], "includesElement__electronegativity_sanderson": [0.577482, 0.9761915], "includesElement__en_ghosh": [0.26493, 0.1408379], "includesElement__en_pauling": [3.04, 2.28], "includesElement__glawe_number": [88, 63], "includesElement__group_id": [15, 9], "includesElement__heat_of_formation": [472.44, 556.0], "includesElement__is_radioactive": [false], "includesElement__lattice_constant": [4.039, 3.8], "includesElement__mendeleev_number": [93, 64], "includesElement__molar_heat_capacity": [29.124, 24.98], "includesElement__period": [2, 5], "includesElement__pettifor_number": [100, 66], "includesElement__specific_heat_capacity": [1.04, 0.243], "includesElement__vdw_radius": [155.0, 210.0], "includesElement__vdw_radius_alvarez": [166.0, 244.0], "includesElement__vdw_radius_mm3": [193.0, 234.0], "includesElement__vdw_radius_uff": [366.0, 292.9], "includesElement__abundance_sea": [0.5], "includesElement__c6_gb": [25.7, 708.0], "includesElement__covalent_radius_bragg": [65.0], "includesElement__electronegativity_allen": [18.13, 9.259], "includesElement__en_allen": [18.13, 9.259], "includesElement__metallic_radius_c12": [53.0, 134.0], "includesElement__thermal_conductivity": [0.026, 150.0], "includesElement__vdw_radius_batsanov": [160.0, 200.0], "includesElement__c6": [24.2], "includesElement__vdw_radius_dreiding": [366.21], "includesElement__gas_basicity": [318.7, 745.4], "includesElement__proton_affinity": [342.2, 768.0], "includesElement__vdw_radius_bondi": [155.0], "includesElement__vdw_radius_rt": [164.0], "includesElement__evaporation_heat": [494.0], "includesElement__fusion_heat": [21.8], "includesElement__atomic_weight_uncertainty": [2e-05], "includesElement__metallic_radius": [125.0], "includesElement__is_monoisotopic": [true], "formula": ["N2Rh2"], "spacegroup": ["194"], "thermalConductivity": [12.7834], "icsd": ["185563"], "band_gap": [0.0], "density": [9.359107], "density_atomic": [10.37157], "deprecated": [false], "efermi": [7.175597], "energy_above_hull": [0.6088918], "energy_per_atom": [-16.0236], "formation_energy_per_atom": [0.6088918], "homogeneous_poisson": [0.354], "is_gap_direct": [false], "is_magnetic": [false], "is_metal": [true], "is_stable": [false], "nelements": [2], "nsites": [4], "num_magnetic_sites": [0], "num_unique_magnetic_sites": [0], "theoretical": [true], "total_magnetization": [0.0007456], "total_magnetization_normalized_formula_units": [0.0003728], "total_magnetization_normalized_vol": [1.797221e-05], "uncorrected_energy_per_atom": [-7.06101], "universal_anisotropy": [1.298], "volume": [41.48628]}