{"includesElement": ["", "Ir", "In", "Dy"], "includesElement___series_id": [8, 7, 9], "includesElement__abundance_crust": [0.001, 0.25, 5.2], "includesElement__atomic_number": [77, 49, 66], "includesElement__atomic_radius": [135.0, 155.0, 175.0], "includesElement__atomic_radius_rahm": [240.0, 246.0, 275.0], "includesElement__atomic_volume": [8.54, 15.7, 19.0], "includesElement__atomic_weight": [192.217, 114.818, 162.5], "includesElement__covalent_radius_cordero": [141.0, 142.0, 192.0], "includesElement__covalent_radius_pyykko": [122.0, 142.0, 167.0], "includesElement__covalent_radius_pyykko_double": [115.0, 136.0, 133.0], "includesElement__covalent_radius_pyykko_triple": [107.0, 146.0], "includesElement__density": [22.5622, 7.31, 8.55], "includesElement__dipole_polarizability": [54.0, 65.0, 163.0], "includesElement__dipole_polarizability_unc": [7.0, 4.0, 15.0], "includesElement__discovery_year": [1804, 1863, 1886], "includesElement__electron_affinity": [1.5638, 0.3, 0.352], "includesElement__electronegativity_allred-rochow": [0.0002620263, 0.0002479667, 0.0001021908], "includesElement__electronegativity_cottrell-sutton": [0.1787938, 0.1876467, 0.1306364], "includesElement__electronegativity_ghosh": [0.25106, 0.16423, 0.20333], "includesElement__electronegativity_gordy": [0.03196721, 0.03521127, 0.01706587], "includesElement__electronegativity_mulliken": [5.26541, 3.043178, 3.145525], "includesElement__electronegativity_nagle": [0.5503212, 0.3587038, 0.4191131], "includesElement__electronegativity_pauling": [2.2, 1.78, 1.22], "includesElement__electronegativity_sanderson": [1.475998, 0.7172747, 0.5297338], "includesElement__en_ghosh": [0.25106, 0.16423, 0.20333], "includesElement__en_pauling": [2.2, 1.78, 1.22], "includesElement__evaporation_heat": [604.0, 225.1, 291.0], "includesElement__fusion_heat": [27.61, 3.24], "includesElement__glawe_number": [62, 80, 24], "includesElement__group_id": [9, 13], "includesElement__heat_of_formation": [669.0, 243.0, 290.4], "includesElement__is_radioactive": [false], "includesElement__lattice_constant": [3.84, 4.59, 3.59], "includesElement__mendeleev_number": [65, 84, 31], "includesElement__molar_heat_capacity": [25.1, 26.74, 28.16], "includesElement__period": [6, 5], "includesElement__pettifor_number": [65, 79, 25], "includesElement__specific_heat_capacity": [0.131, 0.233, 0.173], "includesElement__vdw_radius": [213.0, 193.0, 231.0], "includesElement__vdw_radius_alvarez": [241.0, 243.0, 287.0], "includesElement__vdw_radius_mm3": [236.0, 264.0, 290.0], "includesElement__vdw_radius_uff": [284.0, 446.3, 342.8], "includesElement__atomic_weight_uncertainty": [0.003, 0.001], "includesElement__c6_gb": [522.0, 643.0, 2430.0], "includesElement__electronegativity_allen": [9.96, 9.793], "includesElement__en_allen": [9.96, 9.793], "includesElement__metallic_radius": [127.0, 142.0], "includesElement__metallic_radius_c12": [136.0, 158.0], "includesElement__thermal_conductivity": [147.0, 81.8, 10.7], "includesElement__vdw_radius_batsanov": [200.0, 220.0], "includesElement__abundance_sea": [0.02, 9.1e-07], "includesElement__c6": [779.0], "includesElement__vdw_radius_dreiding": [459.0], "includesElement__vdw_radius_bondi": [193.0], "formula": ["Dy3In3Ir3"], "spacegroup": ["189"], "thermalConductivity": [1.83382], "icsd": ["414472"], "band_gap": [0.0], "density": [12.29146], "density_atomic": [21.14425], "deprecated": [false], "efermi": [6.598032], "energy_above_hull": [0.0], "energy_per_atom": [-6.105428], "formation_energy_per_atom": [-0.7000997], "is_gap_direct": [false], "is_magnetic": [false], "is_metal": [true], "is_stable": [true], "nelements": [3], "nsites": [9], "num_magnetic_sites": [0], "num_unique_magnetic_sites": [0], "theoretical": [false], "total_magnetization": [1e-07], "total_magnetization_normalized_formula_units": [3.333333e-08], "total_magnetization_normalized_vol": [5.25491e-10], "uncorrected_energy_per_atom": [-36.47945], "volume": [190.2982], "equilibrium_reaction_energy_per_atom": [-0.0675086]}