{"includesElement": ["", "Al", "O", "Au"], "includesElement___series_id": [7, 1, 8], "includesElement__abundance_crust": [82300.0, 461000.0, 0.004], "includesElement__atomic_number": [13, 8, 79], "includesElement__atomic_radius": [125.0, 60.0, 135.0], "includesElement__atomic_radius_rahm": [239.0, 171.0, 226.0], "includesElement__atomic_volume": [10.0, 14.0, 10.2], "includesElement__atomic_weight": [26.98154, 15.999, 196.9666], "includesElement__covalent_radius_cordero": [121.0, 66.0, 136.0], "includesElement__covalent_radius_pyykko": [126.0, 63.0, 124.0], "includesElement__covalent_radius_pyykko_double": [113.0, 57.0, 121.0], "includesElement__covalent_radius_pyykko_triple": [111.0, 53.0, 123.0], "includesElement__density": [2.7, 0.001308, 19.3], "includesElement__dipole_polarizability": [57.8, 5.3, 36.0], "includesElement__dipole_polarizability_unc": [1.0, 0.2, 3.0], "includesElement__discovery_year": [1825, 1774], "includesElement__electron_affinity": [0.43283, 1.461113, 2.30863], "includesElement__electronegativity_allred-rochow": [0.0002204586, 0.001146384, 0.0002406348], "includesElement__electronegativity_cottrell-sutton": [0.1666667, 0.2687419, 0.1727388], "includesElement__electronegativity_ghosh": [0.150078, 0.304575, 0.26137], "includesElement__electronegativity_gordy": [0.02777778, 0.07222222, 0.02983871], "includesElement__electronegativity_mulliken": [3.209299, 7.539584, 5.767091], "includesElement__electronegativity_nagle": [0.3730192, 1.042218, 0.67354], "includesElement__electronegativity_pauling": [1.61, 3.44, 2.4], "includesElement__electronegativity_sanderson": [0.2360927, 0.9416494, 1.426701], "includesElement__en_ghosh": [0.150078, 0.304575, 0.26137], "includesElement__en_pauling": [1.61, 3.44, 2.4], "includesElement__evaporation_heat": [284.1, 340.0], "includesElement__fusion_heat": [10.75, 12.68], "includesElement__glawe_number": [78, 97, 66], "includesElement__group_id": [13, 16, 11], "includesElement__heat_of_formation": [330.9, 249.229, 368.2], "includesElement__is_radioactive": [false], "includesElement__lattice_constant": [4.05, 6.83, 4.08], "includesElement__mendeleev_number": [82, 99, 73], "includesElement__molar_heat_capacity": [24.2, 29.378, 25.418], "includesElement__period": [3, 2, 6], "includesElement__pettifor_number": [80, 101, 70], "includesElement__specific_heat_capacity": [0.897, 0.918, 0.129], "includesElement__vdw_radius": [184.0, 152.0, 214.0], "includesElement__vdw_radius_alvarez": [225.0, 150.0, 232.0], "includesElement__vdw_radius_mm3": [236.0, 182.0, 243.0], "includesElement__vdw_radius_uff": [449.9, 350.0, 329.3], "includesElement__abundance_sea": [0.002, 857000.0, 4e-06], "includesElement__atomic_weight_uncertainty": [7e-07, 5e-06], "includesElement__c6_gb": [520.0, 16.7, 427.0], "includesElement__covalent_radius_bragg": [135.0, 65.0], "includesElement__electronegativity_allen": [9.539, 21.36, 11.33], "includesElement__en_allen": [9.539, 21.36, 11.33], "includesElement__metallic_radius": [125.0, 134.0], "includesElement__metallic_radius_c12": [143.0, 144.0], "includesElement__thermal_conductivity": [237.0, 0.027, 318.0], "includesElement__vdw_radius_batsanov": [210.0, 155.0], "includesElement__c6": [528.0, 15.6], "includesElement__is_monoisotopic": [true], "includesElement__vdw_radius_dreiding": [439.0, 340.46], "includesElement__vdw_radius_truhlar": [184.0], "includesElement__gas_basicity": [459.6], "includesElement__proton_affinity": [485.2], "includesElement__vdw_radius_bondi": [152.0], "includesElement__vdw_radius_rt": [158.0], "formula": ["Al2Au2O4"], "spacegroup": ["194"], "thermalConductivity": [4.9083], "icsd": ["95663"], "band_gap": [0.5888], "density": [9.567555], "density_atomic": [11.1055], "deprecated": [false], "efermi": [5.813935], "energy_above_hull": [0.05419592], "energy_per_atom": [-6.453496], "formation_energy_per_atom": [-2.2225], "homogeneous_poisson": [0.317], "is_gap_direct": [false], "is_magnetic": [false], "is_metal": [false], "is_stable": [false], "nelements": [3], "nsites": [8], "num_magnetic_sites": [0], "num_unique_magnetic_sites": [0], "theoretical": [true], "total_magnetization": [0.0], "total_magnetization_normalized_formula_units": [0.0], "total_magnetization_normalized_vol": [0.0], "uncorrected_energy_per_atom": [-19.43444], "universal_anisotropy": [2.198], "volume": [88.84398], "cbm": [6.3788], "vbm": [5.79]}