{"includesElement": ["", "Ge", "Mn", "Nb"], "includesElement___series_id": [5, 8], "includesElement__abundance_crust": [1.5, 950.0, 20.0], "includesElement__atomic_number": [32, 25, 41], "includesElement__atomic_radius": [125.0, 140.0, 145.0], "includesElement__atomic_radius_rahm": [234.0, 242.0, 251.0], "includesElement__atomic_volume": [13.6, 7.39, 10.8], "includesElement__atomic_weight": [72.63, 54.93804, 92.90637], "includesElement__covalent_radius_cordero": [120.0, 150.0, 164.0], "includesElement__covalent_radius_pyykko": [121.0, 119.0, 147.0], "includesElement__covalent_radius_pyykko_double": [111.0, 105.0, 125.0], "includesElement__covalent_radius_pyykko_triple": [114.0, 103.0, 116.0], "includesElement__density": [5.3234, 7.3, 8.57], "includesElement__dipole_polarizability": [40.0, 68.0, 98.0], "includesElement__dipole_polarizability_unc": [1.0, 9.0, 8.0], "includesElement__discovery_year": [1886, 1774, 1801], "includesElement__electron_affinity": [1.232712, 0.917406], "includesElement__electronegativity_allred-rochow": [0.0003859026, 0.0002542193, 0.0001295756], "includesElement__electronegativity_cottrell-sutton": [0.2160884, 0.1739313, 0.1380131], "includesElement__electronegativity_ghosh": [0.1895892, 0.1352844, 0.1280782], "includesElement__electronegativity_gordy": [0.04669421, 0.0302521, 0.01904762], "includesElement__electronegativity_mulliken": [4.566073, 3.717009, 3.838128], "includesElement__electronegativity_nagle": [0.4641589, 0.4686656, 0.3708924], "includesElement__electronegativity_pauling": [2.01, 1.55, 1.6], "includesElement__electronegativity_sanderson": [0.8001471, 0.6707264, 0.5561695], "includesElement__en_ghosh": [0.1895892, 0.1352844, 0.1280782], "includesElement__en_pauling": [2.01, 1.55, 1.6], "includesElement__evaporation_heat": [328.0, 221.0, 680.0], "includesElement__fusion_heat": [36.8, 13.4, 26.8], "includesElement__glawe_number": [84, 72, 53], "includesElement__group_id": [14, 7, 5], "includesElement__heat_of_formation": [372.0, 283.3, 733.0], "includesElement__is_radioactive": [false], "includesElement__lattice_constant": [5.66, 8.89, 3.3], "includesElement__mendeleev_number": [89, 55, 48], "includesElement__molar_heat_capacity": [23.222, 26.32, 24.6], "includesElement__period": [4, 5], "includesElement__pettifor_number": [84, 60, 52], "includesElement__specific_heat_capacity": [0.32, 0.479, 0.265], "includesElement__vdw_radius": [211.0, 205.0, 218.0], "includesElement__vdw_radius_alvarez": [229.0, 245.0, 256.0], "includesElement__vdw_radius_mm3": [244.0, 224.0, 243.0], "includesElement__vdw_radius_uff": [428.0, 296.1, 316.5], "includesElement__abundance_sea": [5e-05, 0.0002, 1e-05], "includesElement__atomic_weight_uncertainty": [0.008, 3e-06, 2e-05], "includesElement__c6_gb": [365.0, 635.0, 1140.0], "includesElement__electronegativity_allen": [11.8, 10.34, 8.34], "includesElement__en_allen": [11.8, 10.34, 8.34], "includesElement__metallic_radius": [124.0, 118.0, 134.0], "includesElement__metallic_radius_c12": [144.0, 127.0, 146.0], "includesElement__thermal_conductivity": [60.2, 53.7], "includesElement__vdw_radius_batsanov": [210.0, 205.0, 215.0], "includesElement__c6": [354.0, 552.0], "includesElement__vdw_radius_dreiding": [427.0], "includesElement__vdw_radius_truhlar": [211.0], "includesElement__covalent_radius_bragg": [147.0], "includesElement__is_monoisotopic": [true], "includesElement__gas_basicity": [774.4], "includesElement__proton_affinity": [797.3], "formula": ["Ge3Mn3Nb3"], "spacegroup": ["189"], "thermalConductivity": [8.36134], "icsd": ["42911"], "band_gap": [0.0], "density": [7.836502], "density_atomic": [15.5734], "deprecated": [false], "efermi": [6.562953], "energy_above_hull": [0.0], "energy_per_atom": [-8.286197], "formation_energy_per_atom": [-0.3240806], "homogeneous_poisson": [0.305], "is_gap_direct": [false], "is_magnetic": [true], "is_metal": [true], "is_stable": [true], "nelements": [3], "nsites": [9], "num_magnetic_sites": [6], "num_unique_magnetic_sites": [2], "theoretical": [false], "total_magnetization": [9.263689], "total_magnetization_normalized_formula_units": [3.087896], "total_magnetization_normalized_vol": [0.06609337], "uncorrected_energy_per_atom": [-18.22865], "universal_anisotropy": [0.901], "volume": [140.1606], "equilibrium_reaction_energy_per_atom": [-0.009866318]}