{"includesElement": ["", "Pd", "Au"], "includesElement___series_id": [8], "includesElement__abundance_crust": [0.015, 0.004], "includesElement__atomic_number": [46, 79], "includesElement__atomic_radius": [140.0, 135.0], "includesElement__atomic_radius_rahm": [215.0, 226.0], "includesElement__atomic_volume": [8.9, 10.2], "includesElement__atomic_weight": [106.42, 196.9666], "includesElement__covalent_radius_cordero": [139.0, 136.0], "includesElement__covalent_radius_pyykko": [120.0, 124.0], "includesElement__covalent_radius_pyykko_double": [117.0, 121.0], "includesElement__covalent_radius_pyykko_triple": [112.0, 123.0], "includesElement__density": [12.0, 19.3], "includesElement__dipole_polarizability": [26.14, 36.0], "includesElement__dipole_polarizability_unc": [0.1, 3.0], "includesElement__discovery_year": [1803], "includesElement__electron_affinity": [0.562, 2.30863], "includesElement__electronegativity_allred-rochow": [0.0004756944, 0.0002406348], "includesElement__electronegativity_cottrell-sutton": [0.2389212, 0.1727388], "includesElement__electronegativity_ghosh": [0.1440276, 0.26137], "includesElement__electronegativity_gordy": [0.05708333, 0.02983871], "includesElement__electronegativity_mulliken": [4.44943, 5.767091], "includesElement__electronegativity_nagle": [0.7259357, 0.67354], "includesElement__electronegativity_pauling": [2.2, 2.4], "includesElement__electronegativity_sanderson": [1.124263, 1.426701], "includesElement__en_ghosh": [0.1440276, 0.26137], "includesElement__en_pauling": [2.2, 2.4], "includesElement__evaporation_heat": [372.4, 340.0], "includesElement__fusion_heat": [17.24, 12.68], "includesElement__glawe_number": [65, 66], "includesElement__group_id": [10, 11], "includesElement__heat_of_formation": [376.6, 368.2], "includesElement__is_radioactive": [false], "includesElement__lattice_constant": [3.89, 4.08], "includesElement__mendeleev_number": [68, 73], "includesElement__molar_heat_capacity": [25.98, 25.418], "includesElement__period": [5, 6], "includesElement__pettifor_number": [69, 70], "includesElement__specific_heat_capacity": [0.246, 0.129], "includesElement__vdw_radius": [210.0, 214.0], "includesElement__vdw_radius_alvarez": [215.0, 232.0], "includesElement__vdw_radius_mm3": [237.0, 243.0], "includesElement__vdw_radius_uff": [289.9, 329.3], "includesElement__atomic_weight_uncertainty": [0.01, 5e-06], "includesElement__c6_gb": [628.0, 427.0], "includesElement__electronegativity_allen": [9.402, 11.33], "includesElement__en_allen": [9.402, 11.33], "includesElement__metallic_radius": [128.0, 134.0], "includesElement__metallic_radius_c12": [137.0, 144.0], "includesElement__thermal_conductivity": [71.8, 318.0], "includesElement__vdw_radius_batsanov": [205.0, 210.0], "includesElement__gas_basicity": [673.4], "includesElement__proton_affinity": [696.0], "includesElement__abundance_sea": [4e-06], "includesElement__is_monoisotopic": [true], "formula": ["Au1Pd3"], "spacegroup": ["221"], "thermalConductivity": [2.50825], "icsd": ["180877"], "band_gap": [0.0], "density": [13.72398], "density_atomic": [15.61526], "deprecated": [false], "efermi": [4.55494], "energy_above_hull": [0.0], "energy_per_atom": [-29.91597], "formation_energy_per_atom": [-0.04938845], "homogeneous_poisson": [0.367], "is_gap_direct": [false], "is_magnetic": [false], "is_metal": [true], "is_stable": [true], "nelements": [2], "nsites": [4], "num_magnetic_sites": [0], "num_unique_magnetic_sites": [0], "theoretical": [true], "total_magnetization": [0.0003705], "total_magnetization_normalized_formula_units": [0.0003705], "total_magnetization_normalized_vol": [5.931697e-06], "uncorrected_energy_per_atom": [-29.91597], "universal_anisotropy": [0.934], "volume": [62.46105], "equilibrium_reaction_energy_per_atom": [-0.01730353]}