{"includesElement": ["", "As", "Ba", "Li"], "includesElement___series_id": [5, 4, 3], "includesElement__abundance_crust": [1.8, 425.0, 20.0], "includesElement__atomic_number": [33, 56, 3], "includesElement__atomic_radius": [115.0, 215.0, 145.0], "includesElement__atomic_radius_rahm": [231.0, 293.0, 220.0], "includesElement__atomic_volume": [13.1, 39.0], "includesElement__atomic_weight": [74.92159, 137.327, 6.94], "includesElement__covalent_radius_cordero": [119.0, 215.0, 128.0], "includesElement__covalent_radius_pyykko": [121.0, 196.0, 133.0], "includesElement__covalent_radius_pyykko_double": [114.0, 161.0, 124.0], "includesElement__covalent_radius_pyykko_triple": [106.0, 149.0], "includesElement__density": [5.75, 3.62, 0.534], "includesElement__dipole_polarizability": [30.0, 272.0, 164.1125], "includesElement__dipole_polarizability_unc": [1.0, 10.0, 0.0005], "includesElement__electron_affinity": [0.804, 0.14462, 0.618049], "includesElement__electronegativity_allred-rochow": [0.0004302985, 7.418784e-05, 7.3492e-05], "includesElement__electronegativity_cottrell-sutton": [0.22818, 0.1205853, 0.09886575], "includesElement__electronegativity_ghosh": [0.2068208, 0.1586786, 0.105093], "includesElement__electronegativity_gordy": [0.05206612, 0.01454082, 0.009774436], "includesElement__electronegativity_mulliken": [5.2965, 2.678142, 3.004882], "includesElement__electronegativity_nagle": [0.5503212, 0.1944556, 0.1826499], "includesElement__electronegativity_pauling": [2.18, 0.89, 0.98], "includesElement__electronegativity_sanderson": [0.8253373, 0.3032951, 0.04886793], "includesElement__en_ghosh": [0.2068208, 0.1586786, 0.105093], "includesElement__en_pauling": [2.18, 0.89, 0.98], "includesElement__evaporation_heat": [32.4, 142.0, 148.0], "includesElement__glawe_number": [90, 14, 12], "includesElement__group_id": [15, 2, 1], "includesElement__heat_of_formation": [302.5, 179.1, 159.3], "includesElement__is_radioactive": [false], "includesElement__lattice_constant": [4.13, 5.02, 3.49], "includesElement__mendeleev_number": [95, 9, 1], "includesElement__molar_heat_capacity": [24.64, 28.07, 24.86], "includesElement__period": [4, 6, 2], "includesElement__pettifor_number": [89, 14, 12], "includesElement__specific_heat_capacity": [0.329, 0.204, 3.582], "includesElement__vdw_radius": [185.0, 268.0, 182.0], "includesElement__vdw_radius_alvarez": [188.0, 303.0, 212.0], "includesElement__vdw_radius_mm3": [236.0, 307.0, 255.0], "includesElement__vdw_radius_uff": [423.0, 370.3, 245.1], "includesElement__abundance_sea": [0.0037, 0.013, 0.18], "includesElement__atomic_weight_uncertainty": [6e-06, 0.007], "includesElement__c6_gb": [260.0, 5540.0, 1410.0], "includesElement__covalent_radius_bragg": [126.0, 210.0, 150.0], "includesElement__electronegativity_allen": [13.08, 5.211, 5.392], "includesElement__en_allen": [13.08, 5.211, 5.392], "includesElement__metallic_radius": [121.0, 198.0, 123.0], "includesElement__metallic_radius_c12": [148.0, 222.0, 155.0], "includesElement__vdw_radius_batsanov": [205.0, 270.0, 220.0], "includesElement__c6": [246.0, 1392.0], "includesElement__is_monoisotopic": [true], "includesElement__vdw_radius_dreiding": [415.0], "includesElement__vdw_radius_bondi": [185.0, 181.0], "includesElement__discovery_year": [1808, 1817], "includesElement__fusion_heat": [7.66, 2.89], "includesElement__vdw_radius_truhlar": [268.0], "includesElement__thermal_conductivity": [84.8], "formula": ["As1Ba1Li1"], "spacegroup": ["187"], "thermalConductivity": [4.2689], "icsd": ["56445"], "band_gap": [0.5928], "density": [4.442765], "density_atomic": [27.30829], "deprecated": [false], "efermi": [2.47973], "energy_above_hull": [0.0], "energy_per_atom": [-3.772368], "formation_energy_per_atom": [-0.9396947], "homogeneous_poisson": [0.227], "is_gap_direct": [true], "is_magnetic": [false], "is_metal": [false], "is_stable": [true], "nelements": [3], "nsites": [3], "num_magnetic_sites": [0], "num_unique_magnetic_sites": [0], "theoretical": [false], "total_magnetization": [0.0], "total_magnetization_normalized_formula_units": [0.0], "total_magnetization_normalized_vol": [0.0], "uncorrected_energy_per_atom": [-15.63366], "universal_anisotropy": [0.38], "volume": [81.92486], "cbm": [2.9284], "e_electronic": [10.25643], "e_ionic": [14.90925], "e_total": [25.16568], "equilibrium_reaction_energy_per_atom": [-0.02975583], "n": [3.202566], "vbm": [2.3356], "e_ij_max": [0.4969546]}