{"includesElement": ["", "Sn", "Sc", "Pt"], "includesElement___series_id": [7, 8], "includesElement__abundance_crust": [2.3, 22.0, 0.005], "includesElement__atomic_number": [50, 21, 78], "includesElement__atomic_radius": [145.0, 160.0, 135.0], "includesElement__atomic_radius_rahm": [248.0, 263.0, 230.0], "includesElement__atomic_volume": [16.3, 15.0, 9.1], "includesElement__atomic_weight": [118.71, 44.95591, 195.084], "includesElement__covalent_radius_cordero": [139.0, 170.0, 136.0], "includesElement__covalent_radius_pyykko": [140.0, 148.0, 123.0], "includesElement__covalent_radius_pyykko_double": [130.0, 116.0, 112.0], "includesElement__covalent_radius_pyykko_triple": [132.0, 114.0, 110.0], "includesElement__density": [7.287, 2.99, 21.5], "includesElement__dipole_polarizability": [53.0, 97.0, 48.0], "includesElement__dipole_polarizability_unc": [6.0, 10.0, 4.0], "includesElement__electron_affinity": [1.112067, 0.188, 2.128], "includesElement__electronegativity_allred-rochow": [0.0002882653, 0.0001369613, 0.0002346487], "includesElement__electronegativity_cottrell-sutton": [0.2008909, 0.1423737, 0.1698876], "includesElement__electronegativity_ghosh": [0.178052, 0.1193833, 0.25691], "includesElement__electronegativity_gordy": [0.04035714, 0.02027027, 0.02886179], "includesElement__electronegativity_mulliken": [4.227992, 3.374745, 5.543415], "includesElement__electronegativity_nagle": [0.4225986, 0.3138941, 0.5928156], "includesElement__electronegativity_pauling": [1.96, 1.36, 2.2], "includesElement__electronegativity_sanderson": [0.7622797, 0.3038674, 1.45101], "includesElement__en_ghosh": [0.178052, 0.1193833, 0.25691], "includesElement__en_pauling": [1.96, 1.36, 2.2], "includesElement__evaporation_heat": [296.0, 332.7, 470.0], "includesElement__fusion_heat": [7.07, 15.8, 21.76], "includesElement__glawe_number": [83, 48, 64], "includesElement__group_id": [14, 3, 10], "includesElement__heat_of_formation": [301.2, 377.8, 565.7], "includesElement__is_radioactive": [false], "includesElement__lattice_constant": [5.82, 3.31, 3.92], "includesElement__mendeleev_number": [90, 11, 69], "includesElement__molar_heat_capacity": [26.99, 25.52, 25.86], "includesElement__period": [5, 4, 6], "includesElement__pettifor_number": [83, 20, 68], "includesElement__specific_heat_capacity": [0.227, 0.568, 0.133], "includesElement__vdw_radius": [217.0, 215.0, 213.0], "includesElement__vdw_radius_alvarez": [242.0, 258.0, 229.0], "includesElement__vdw_radius_mm3": [259.0, 261.0, 239.0], "includesElement__vdw_radius_uff": [439.2, 329.5, 275.4], "includesElement__abundance_sea": [4e-06, 6e-07], "includesElement__atomic_weight_uncertainty": [0.007, 5e-06, 0.009], "includesElement__c6_gb": [715.0, 1570.0, 470.0], "includesElement__covalent_radius_bragg": [140.0], "includesElement__electronegativity_allen": [10.79, 7.042, 10.16], "includesElement__en_allen": [10.79, 7.042, 10.16], "includesElement__metallic_radius": [142.0, 144.0, 130.0], "includesElement__metallic_radius_c12": [163.0, 162.0, 139.0], "includesElement__thermal_conductivity": [66.8, 15.8, 71.6], "includesElement__vdw_radius_batsanov": [225.0, 230.0, 205.0], "includesElement__c6": [659.0, 1383.0], "includesElement__vdw_radius_dreiding": [447.0], "includesElement__vdw_radius_bondi": [217.0], "includesElement__discovery_year": [1879, 1735], "includesElement__is_monoisotopic": [true], "includesElement__gas_basicity": [892.0], "includesElement__proton_affinity": [914.0], "formula": ["Pt2Sc1Sn1"], "spacegroup": ["225"], "thermalConductivity": [1.47765], "icsd": ["105788"], "band_gap": [0.0], "density": [12.65086], "density_atomic": [18.17392], "deprecated": [false], "efermi": [8.008427], "energy_above_hull": [0.05231724], "energy_per_atom": [-6.511671], "formation_energy_per_atom": [-0.8905936], "homogeneous_poisson": [0.454], "is_gap_direct": [false], "is_magnetic": [false], "is_metal": [true], "is_stable": [false], "nelements": [3], "nsites": [4], "num_magnetic_sites": [0], "num_unique_magnetic_sites": [0], "theoretical": [false], "total_magnetization": [0.000671], "total_magnetization_normalized_formula_units": [0.000671], "total_magnetization_normalized_vol": [9.230258e-06], "uncorrected_energy_per_atom": [-6.511671], "universal_anisotropy": [-83.284], "volume": [72.69569]}