{"includesElement": ["", "Pt", "Nd"], "includesElement___series_id": [8, 9], "includesElement__abundance_crust": [0.005, 41.5], "includesElement__atomic_number": [78, 60], "includesElement__atomic_radius": [135.0, 185.0], "includesElement__atomic_radius_rahm": [230.0, 284.0], "includesElement__atomic_volume": [9.1, 20.6], "includesElement__atomic_weight": [195.084, 144.242], "includesElement__covalent_radius_cordero": [136.0, 201.0], "includesElement__covalent_radius_pyykko": [123.0, 174.0], "includesElement__covalent_radius_pyykko_double": [112.0, 137.0], "includesElement__covalent_radius_pyykko_triple": [110.0], "includesElement__density": [21.5, 7.01], "includesElement__dipole_polarizability": [48.0, 208.0], "includesElement__dipole_polarizability_unc": [4.0, 20.0], "includesElement__discovery_year": [1735, 1925], "includesElement__electron_affinity": [2.128, 1.916], "includesElement__electronegativity_allred-rochow": [0.0002346487, 9.413397e-05], "includesElement__electronegativity_cottrell-sutton": [0.1698876, 0.1279817], "includesElement__electronegativity_ghosh": [0.25691, 0.176539], "includesElement__electronegativity_gordy": [0.02886179, 0.01637931], "includesElement__electronegativity_mulliken": [5.543415, 3.7205], "includesElement__electronegativity_nagle": [0.5928156, 0.3066874], "includesElement__electronegativity_pauling": [2.2, 1.14], "includesElement__electronegativity_sanderson": [1.45101, 0.447218], "includesElement__en_ghosh": [0.25691, 0.176539], "includesElement__en_pauling": [2.2, 1.14], "includesElement__evaporation_heat": [470.0, 289.0], "includesElement__fusion_heat": [21.76, 7.1], "includesElement__glawe_number": [64, 29], "includesElement__group_id": [10], "includesElement__heat_of_formation": [565.7, 326.9], "includesElement__is_radioactive": [false], "includesElement__lattice_constant": [3.92, 3.66], "includesElement__mendeleev_number": [69, 19], "includesElement__molar_heat_capacity": [25.86, 27.45], "includesElement__period": [6], "includesElement__pettifor_number": [68, 30], "includesElement__specific_heat_capacity": [0.133, 0.19], "includesElement__vdw_radius": [213.0, 239.0], "includesElement__vdw_radius_alvarez": [229.0, 295.0], "includesElement__vdw_radius_mm3": [239.0, 273.0], "includesElement__vdw_radius_uff": [275.4, 357.5], "includesElement__atomic_weight_uncertainty": [0.009, 0.003], "includesElement__c6_gb": [470.0, 3560.0], "includesElement__electronegativity_allen": [10.16], "includesElement__en_allen": [10.16], "includesElement__metallic_radius": [130.0], "includesElement__metallic_radius_c12": [139.0], "includesElement__thermal_conductivity": [71.6], "includesElement__vdw_radius_batsanov": [205.0], "includesElement__abundance_sea": [2.8e-06], "formula": ["Nd1Pt3"], "spacegroup": ["221"], "thermalConductivity": [3.23184], "icsd": ["105280"], "band_gap": [0.0], "density": [16.60301], "density_atomic": [18.23997], "deprecated": [false], "efermi": [6.017798], "energy_above_hull": [0.01737946], "energy_per_atom": [-6.593731], "formation_energy_per_atom": [-0.8483445], "homogeneous_poisson": [0.327], "is_gap_direct": [false], "is_magnetic": [false], "is_metal": [true], "is_stable": [false], "nelements": [2], "nsites": [4], "num_magnetic_sites": [0], "num_unique_magnetic_sites": [0], "theoretical": [false], "total_magnetization": [0.0001436], "total_magnetization_normalized_formula_units": [0.0001436], "total_magnetization_normalized_vol": [1.968205e-06], "uncorrected_energy_per_atom": [-46.88262], "universal_anisotropy": [0.26], "volume": [72.95987]}