{"includesElement": ["", "S", "Ta", "Au"], "includesElement___series_id": [1, 8], "includesElement__abundance_crust": [350.0, 2.0, 0.004], "includesElement__atomic_number": [16, 73, 79], "includesElement__atomic_radius": [100.0, 145.0, 135.0], "includesElement__atomic_radius_rahm": [214.0, 258.0, 226.0], "includesElement__atomic_volume": [15.5, 10.9, 10.2], "includesElement__atomic_weight": [32.06, 180.9479, 196.9666], "includesElement__covalent_radius_cordero": [105.0, 170.0, 136.0], "includesElement__covalent_radius_pyykko": [103.0, 146.0, 124.0], "includesElement__covalent_radius_pyykko_double": [94.0, 126.0, 121.0], "includesElement__covalent_radius_pyykko_triple": [95.0, 119.0, 123.0], "includesElement__density": [2.07, 16.4, 19.3], "includesElement__dipole_polarizability": [19.4, 74.0, 36.0], "includesElement__dipole_polarizability_unc": [0.1, 20.0, 3.0], "includesElement__electron_affinity": [2.077104, 0.322, 2.30863], "includesElement__electronegativity_allred-rochow": [0.0005137148, 0.0001548133, 0.0002406348], "includesElement__electronegativity_cottrell-sutton": [0.2300274, 0.1503421, 0.1727388], "includesElement__electronegativity_ghosh": [0.23596, 0.234581, 0.26137], "includesElement__electronegativity_gordy": [0.05291262, 0.02260274, 0.02983871], "includesElement__electronegativity_mulliken": [6.218557, 3.935785, 5.767091], "includesElement__electronegativity_nagle": [0.6762644, 0.4072985, 0.67354], "includesElement__electronegativity_pauling": [2.58, 1.5, 2.4], "includesElement__electronegativity_sanderson": [0.6397251, 0.8358832, 1.426701], "includesElement__en_ghosh": [0.23596, 0.234581, 0.26137], "includesElement__en_pauling": [2.58, 1.5, 2.4], "includesElement__evaporation_heat": [10.5, 758.0, 340.0], "includesElement__fusion_heat": [1.23, 24.7, 12.68], "includesElement__glawe_number": [96, 52, 66], "includesElement__group_id": [16, 5, 11], "includesElement__heat_of_formation": [277.17, 782.0, 368.2], "includesElement__is_radioactive": [false], "includesElement__lattice_constant": [10.47, 3.31, 4.08], "includesElement__mendeleev_number": [100, 49, 73], "includesElement__molar_heat_capacity": [22.7, 25.36, 25.418], "includesElement__period": [3, 6], "includesElement__pettifor_number": [94, 53, 70], "includesElement__specific_heat_capacity": [0.708, 0.14, 0.129], "includesElement__vdw_radius": [180.0, 222.0, 214.0], "includesElement__vdw_radius_alvarez": [189.0, 253.0, 232.0], "includesElement__vdw_radius_mm3": [215.0, 243.0], "includesElement__vdw_radius_uff": [403.5, 317.0, 329.3], "includesElement__abundance_sea": [905.0, 2e-06, 4e-06], "includesElement__c6_gb": [140.0, 887.0, 427.0], "includesElement__covalent_radius_bragg": [102.0], "includesElement__electronegativity_allen": [15.31, 7.93, 11.33], "includesElement__en_allen": [15.31, 7.93, 11.33], "includesElement__metallic_radius": [104.0, 134.0], "includesElement__metallic_radius_c12": [127.0, 146.0, 144.0], "includesElement__thermal_conductivity": [0.27, 57.5, 318.0], "includesElement__vdw_radius_batsanov": [180.0, 220.0, 210.0], "includesElement__c6": [134.0], "includesElement__vdw_radius_dreiding": [403.0], "includesElement__gas_basicity": [640.2], "includesElement__proton_affinity": [664.3], "includesElement__vdw_radius_bondi": [180.0], "includesElement__vdw_radius_rt": [181.0], "includesElement__discovery_year": [1802], "includesElement__atomic_weight_uncertainty": [2e-05, 5e-06], "includesElement__is_monoisotopic": [true], "formula": ["Au4S4Ta20"], "spacegroup": ["216"], "thermalConductivity": [2.72587], "icsd": ["51139"], "band_gap": [0.0], "density": [15.21188], "density_atomic": [17.68046], "deprecated": [false], "efermi": [6.275228], "energy_above_hull": [0.0], "energy_per_atom": [-9.922811], "formation_energy_per_atom": [-0.3875421], "is_gap_direct": [false], "is_magnetic": [false], "is_metal": [true], "is_stable": [true], "nelements": [3], "nsites": [28], "num_magnetic_sites": [0], "num_unique_magnetic_sites": [0], "theoretical": [false], "total_magnetization": [4e-07], "total_magnetization_normalized_formula_units": [1e-07], "total_magnetization_normalized_vol": [8.079946e-10], "uncorrected_energy_per_atom": [-43.4536], "volume": [495.0528], "equilibrium_reaction_energy_per_atom": [-0.03194924]}