{"includesElement": ["", "Hg", "Al", "Te"], "includesElement___series_id": [8, 7, 5], "includesElement__abundance_crust": [0.085, 82300.0, 0.001], "includesElement__atomic_number": [80, 13, 52], "includesElement__atomic_radius": [150.0, 125.0, 140.0], "includesElement__atomic_radius_rahm": [229.0, 239.0, 242.0], "includesElement__atomic_volume": [14.8, 10.0, 20.5], "includesElement__atomic_weight": [200.592, 26.98154, 127.6], "includesElement__covalent_radius_cordero": [132.0, 121.0, 138.0], "includesElement__covalent_radius_pyykko": [133.0, 126.0, 136.0], "includesElement__covalent_radius_pyykko_double": [142.0, 113.0, 128.0], "includesElement__density": [13.5336, 2.7, 6.232], "includesElement__dipole_polarizability": [33.91, 57.8, 38.0], "includesElement__dipole_polarizability_unc": [0.34, 1.0, 4.0], "includesElement__electronegativity_allred-rochow": [0.0002459155, 0.0002204586, 0.0003757569], "includesElement__electronegativity_cottrell-sutton": [0.1808501, 0.1666667, 0.2260596], "includesElement__electronegativity_ghosh": [0.169, 0.150078, 0.2056992], "includesElement__electronegativity_gordy": [0.03270677, 0.02777778, 0.05110294], "includesElement__electronegativity_mulliken": [5.218752, 3.209299, 5.490268], "includesElement__electronegativity_nagle": [0.7073231, 0.3730192, 0.5404919], "includesElement__electronegativity_pauling": [1.9, 1.61, 2.1], "includesElement__electronegativity_sanderson": [1.164789, 0.2360927, 0.8622506], "includesElement__en_ghosh": [0.169, 0.150078, 0.2056992], "includesElement__en_pauling": [1.9, 1.61, 2.1], "includesElement__evaporation_heat": [58.5, 284.1, 49.8], "includesElement__fusion_heat": [2.295, 10.75, 17.91], "includesElement__glawe_number": [76, 78, 94], "includesElement__group_id": [12, 13, 16], "includesElement__heat_of_formation": [61.38, 330.9, 196.6], "includesElement__is_radioactive": [false], "includesElement__lattice_constant": [2.99, 4.05, 4.45], "includesElement__mendeleev_number": [79, 82, 102], "includesElement__molar_heat_capacity": [27.983, 24.2, 25.73], "includesElement__period": [6, 3, 5], "includesElement__pettifor_number": [74, 80, 92], "includesElement__specific_heat_capacity": [0.14, 0.897, 0.202], "includesElement__vdw_radius": [223.0, 184.0, 206.0], "includesElement__vdw_radius_alvarez": [245.0, 225.0, 199.0], "includesElement__vdw_radius_mm3": [253.0, 236.0, 244.0], "includesElement__vdw_radius_uff": [270.5, 449.9, 447.0], "includesElement__abundance_sea": [3e-05, 0.002], "includesElement__atomic_weight_uncertainty": [0.003, 7e-07, 0.03], "includesElement__c6_gb": [268.0, 520.0, 471.0], "includesElement__electronegativity_allen": [10.44, 9.539, 12.76], "includesElement__en_allen": [10.44, 9.539, 12.76], "includesElement__metallic_radius": [139.0, 125.0, 137.0], "includesElement__metallic_radius_c12": [151.0, 143.0, 160.0], "includesElement__thermal_conductivity": [8.3, 237.0, 14.3], "includesElement__vdw_radius_batsanov": [205.0, 210.0], "includesElement__covalent_radius_pyykko_triple": [111.0, 121.0], "includesElement__discovery_year": [1825, 1782], "includesElement__electron_affinity": [0.43283, 1.970876], "includesElement__covalent_radius_bragg": [135.0, 133.0], "includesElement__c6": [528.0, 445.0], "includesElement__is_monoisotopic": [true], "includesElement__vdw_radius_dreiding": [439.0, 423.0], "includesElement__vdw_radius_truhlar": [184.0], "includesElement__vdw_radius_bondi": [206.0], "formula": ["Al2Hg1Te4"], "spacegroup": ["82"], "thermalConductivity": [2.10439], "icsd": ["25641"], "band_gap": [1.1108], "density": [5.50338], "density_atomic": [32.97284], "deprecated": [false], "efermi": [3.228835], "energy_above_hull": [0.0], "energy_per_atom": [-23.97713], "formation_energy_per_atom": [-0.477004], "homogeneous_poisson": [0.239], "is_gap_direct": [true], "is_magnetic": [false], "is_metal": [false], "is_stable": [true], "nelements": [3], "nsites": [7], "num_magnetic_sites": [0], "num_unique_magnetic_sites": [0], "theoretical": [false], "total_magnetization": [0.0], "total_magnetization_normalized_formula_units": [0.0], "total_magnetization_normalized_vol": [0.0], "uncorrected_energy_per_atom": [-23.97713], "universal_anisotropy": [0.766], "volume": [230.8099], "cbm": [4.2995], "e_electronic": [9.409222], "e_ionic": [4.185571], "e_total": [13.59479], "equilibrium_reaction_energy_per_atom": [-0.02337586], "n": [3.067446], "vbm": [3.1887], "e_ij_max": [0.1156896]}