{"includesElement": ["", "Si", "Er", "Co"], "includesElement___series_id": [5, 9, 8], "includesElement__abundance_crust": [282000.0, 3.5, 25.0], "includesElement__atomic_number": [14, 68, 27], "includesElement__atomic_radius": [110.0, 175.0, 135.0], "includesElement__atomic_radius_rahm": [232.0, 272.0, 233.0], "includesElement__atomic_volume": [12.1, 18.4, 6.7], "includesElement__atomic_weight": [28.085, 167.259, 58.93319], "includesElement__covalent_radius_cordero": [111.0, 189.0, 138.0], "includesElement__covalent_radius_pyykko": [116.0, 165.0, 111.0], "includesElement__covalent_radius_pyykko_double": [107.0, 133.0, 103.0], "includesElement__covalent_radius_pyykko_triple": [102.0, 96.0], "includesElement__density": [2.3296, 9.07, 8.86], "includesElement__dipole_polarizability": [37.3, 150.0, 55.0], "includesElement__dipole_polarizability_unc": [0.7, 10.0, 4.0], "includesElement__discovery_year": [1824, 1843, 1739], "includesElement__electron_affinity": [1.389521, 0.6622565], "includesElement__electronegativity_allred-rochow": [0.0003084126, 0.0001046832, 0.0003165327], "includesElement__electronegativity_cottrell-sutton": [0.1891451, 0.1314257, 0.1874437], "includesElement__electronegativity_ghosh": [0.178503, 0.212261, 0.1432363], "includesElement__electronegativity_gordy": [0.03577586, 0.01727273, 0.03513514], "includesElement__electronegativity_mulliken": [4.770602, 3.05385, 4.271633], "includesElement__electronegativity_nagle": [0.4750986, 0.4536061, 0.5469655], "includesElement__electronegativity_pauling": [1.9, 1.24, 1.88], "includesElement__electronegativity_sanderson": [0.3468158, 0.5576573, 0.8832424], "includesElement__en_ghosh": [0.178503, 0.212261, 0.1432363], "includesElement__en_pauling": [1.9, 1.24, 1.88], "includesElement__evaporation_heat": [383.0, 317.0, 389.1], "includesElement__fusion_heat": [50.6, 15.48], "includesElement__glawe_number": [85, 22, 70], "includesElement__group_id": [14, 9], "includesElement__heat_of_formation": [450.0, 316.4, 426.7], "includesElement__is_radioactive": [false], "includesElement__lattice_constant": [5.43, 3.56, 2.51], "includesElement__mendeleev_number": [88, 35, 63], "includesElement__molar_heat_capacity": [19.99, 28.12, 24.81], "includesElement__period": [3, 6, 4], "includesElement__pettifor_number": [85, 23, 64], "includesElement__specific_heat_capacity": [0.712, 0.168, 0.421], "includesElement__vdw_radius": [210.0, 229.0, 200.0], "includesElement__vdw_radius_alvarez": [219.0, 283.0, 240.0], "includesElement__vdw_radius_mm3": [229.0, 267.0, 223.0], "includesElement__vdw_radius_uff": [429.5, 339.1, 287.2], "includesElement__abundance_sea": [2.2, 8.7e-07, 2e-05], "includesElement__c6_gb": [308.0, 2150.0, 461.0], "includesElement__covalent_radius_bragg": [117.0, 137.0], "includesElement__electronegativity_allen": [11.33, 10.86], "includesElement__en_allen": [11.33, 10.86], "includesElement__metallic_radius": [117.0, 116.0], "includesElement__metallic_radius_c12": [138.0, 125.0], "includesElement__thermal_conductivity": [149.0, 100.0], "includesElement__vdw_radius_batsanov": [210.0, 200.0], "includesElement__c6": [305.0, 408.0], "includesElement__vdw_radius_dreiding": [427.0], "includesElement__gas_basicity": [814.1, 719.8], "includesElement__proton_affinity": [837.0, 742.7], "includesElement__vdw_radius_bondi": [210.0], "includesElement__atomic_weight_uncertainty": [0.003, 4e-06], "includesElement__is_monoisotopic": [true], "formula": ["Co2Er2Si4"], "spacegroup": ["63"], "thermalConductivity": [6.56039], "icsd": ["622852"], "band_gap": [0.0], "density": [7.451518], "density_atomic": [15.73086], "deprecated": [false], "efermi": [6.600234], "energy_above_hull": [0.0], "energy_per_atom": [-6.375264], "formation_energy_per_atom": [-0.7373207], "homogeneous_poisson": [0.293], "is_gap_direct": [false], "is_magnetic": [false], "is_metal": [true], "is_stable": [true], "nelements": [3], "nsites": [8], "num_magnetic_sites": [0], "num_unique_magnetic_sites": [0], "theoretical": [false], "total_magnetization": [0.0], "total_magnetization_normalized_formula_units": [0.0], "total_magnetization_normalized_vol": [0.0], "uncorrected_energy_per_atom": [-16.93047], "universal_anisotropy": [0.199], "volume": [125.8469], "equilibrium_reaction_energy_per_atom": [-0.001178805]}