{"includesElement": ["", "Ni", "Ta", "Te"], "includesElement___series_id": [8, 5], "includesElement__abundance_crust": [84.0, 2.0, 0.001], "includesElement__atomic_number": [28, 73, 52], "includesElement__atomic_radius": [135.0, 145.0, 140.0], "includesElement__atomic_radius_rahm": [229.0, 258.0, 242.0], "includesElement__atomic_volume": [6.6, 10.9, 20.5], "includesElement__atomic_weight": [58.6934, 180.9479, 127.6], "includesElement__covalent_radius_cordero": [124.0, 170.0, 138.0], "includesElement__covalent_radius_pyykko": [110.0, 146.0, 136.0], "includesElement__covalent_radius_pyykko_double": [101.0, 126.0, 128.0], "includesElement__covalent_radius_pyykko_triple": [101.0, 119.0, 121.0], "includesElement__density": [8.9, 16.4, 6.232], "includesElement__dipole_polarizability": [49.0, 74.0, 38.0], "includesElement__dipole_polarizability_unc": [3.0, 20.0, 4.0], "includesElement__discovery_year": [1751, 1802, 1782], "includesElement__electron_affinity": [1.156, 0.322, 1.970876], "includesElement__electronegativity_allred-rochow": [0.0003347107, 0.0001548133, 0.0003757569], "includesElement__electronegativity_cottrell-sutton": [0.1918806, 0.1503421, 0.2260596], "includesElement__electronegativity_ghosh": [0.1472068, 0.234581, 0.2056992], "includesElement__electronegativity_gordy": [0.03681818, 0.02260274, 0.05110294], "includesElement__electronegativity_mulliken": [4.397939, 3.935785, 5.490268], "includesElement__electronegativity_nagle": [0.588755, 0.4072985, 0.5404919], "includesElement__electronegativity_pauling": [1.91, 1.5, 2.1], "includesElement__electronegativity_sanderson": [0.937704, 0.8358832, 0.8622506], "includesElement__en_ghosh": [0.1472068, 0.234581, 0.2056992], "includesElement__en_pauling": [1.91, 1.5, 2.1], "includesElement__evaporation_heat": [378.6, 758.0, 49.8], "includesElement__fusion_heat": [17.61, 24.7, 17.91], "includesElement__glawe_number": [69, 52, 94], "includesElement__group_id": [10, 5, 16], "includesElement__heat_of_formation": [430.1, 782.0, 196.6], "includesElement__is_radioactive": [false], "includesElement__lattice_constant": [3.52, 3.31, 4.45], "includesElement__mendeleev_number": [67, 49, 102], "includesElement__molar_heat_capacity": [26.07, 25.36, 25.73], "includesElement__period": [4, 6, 5], "includesElement__pettifor_number": [67, 53, 92], "includesElement__specific_heat_capacity": [0.444, 0.14, 0.202], "includesElement__vdw_radius": [197.0, 222.0, 206.0], "includesElement__vdw_radius_alvarez": [240.0, 253.0, 199.0], "includesElement__vdw_radius_mm3": [222.0, 243.0, 244.0], "includesElement__vdw_radius_uff": [283.4, 317.0, 447.0], "includesElement__abundance_sea": [0.00056, 2e-06], "includesElement__atomic_weight_uncertainty": [0.0004, 2e-05, 0.03], "includesElement__c6_gb": [393.0, 887.0, 471.0], "includesElement__covalent_radius_bragg": [135.0, 133.0], "includesElement__electronegativity_allen": [11.13, 7.93, 12.76], "includesElement__en_allen": [11.13, 7.93, 12.76], "includesElement__metallic_radius": [115.0, 134.0, 137.0], "includesElement__metallic_radius_c12": [124.0, 146.0, 160.0], "includesElement__thermal_conductivity": [90.9, 57.5, 14.3], "includesElement__vdw_radius_batsanov": [200.0, 220.0, 210.0], "includesElement__c6": [373.0, 445.0], "includesElement__gas_basicity": [714.1], "includesElement__proton_affinity": [737.0], "includesElement__vdw_radius_dreiding": [423.0], "includesElement__vdw_radius_bondi": [206.0], "formula": ["Ni2Ta2Te10"], "spacegroup": ["63"], "thermalConductivity": [2.32505], "icsd": ["73314"], "band_gap": [0.0], "density": [7.480816], "density_atomic": [27.83038], "deprecated": [false], "efermi": [6.228309], "energy_above_hull": [0.0], "energy_per_atom": [-5.362053], "formation_energy_per_atom": [-0.5958255], "is_gap_direct": [false], "is_magnetic": [false], "is_metal": [true], "is_stable": [true], "nelements": [3], "nsites": [14], "num_magnetic_sites": [0], "num_unique_magnetic_sites": [0], "theoretical": [false], "total_magnetization": [0.0], "total_magnetization_normalized_formula_units": [0.0], "total_magnetization_normalized_vol": [0.0], "uncorrected_energy_per_atom": [-27.12886], "volume": [389.6253], "equilibrium_reaction_energy_per_atom": [-0.02373778]}