{"includesElement": ["", "Ti", "Tc"], "includesElement___series_id": [8], "includesElement__abundance_crust": [5650.0], "includesElement__atomic_number": [22, 43], "includesElement__atomic_radius": [140.0, 135.0], "includesElement__atomic_radius_rahm": [257.0, 252.0], "includesElement__atomic_volume": [10.6, 8.5], "includesElement__atomic_weight": [47.867, 97.90721], "includesElement__covalent_radius_cordero": [160.0, 147.0], "includesElement__covalent_radius_pyykko": [136.0, 128.0], "includesElement__covalent_radius_pyykko_double": [117.0, 120.0], "includesElement__covalent_radius_pyykko_triple": [108.0, 110.0], "includesElement__density": [4.506, 11.0], "includesElement__dipole_polarizability": [100.0, 79.0], "includesElement__dipole_polarizability_unc": [10.0], "includesElement__discovery_year": [1791, 1937], "includesElement__electron_affinity": [0.079, 0.55], "includesElement__electronegativity_allred-rochow": [0.0001703071, 0.0002197266], "includesElement__electronegativity_cottrell-sutton": [0.1521899, 0.1677051], "includesElement__electronegativity_ghosh": [0.1233637, 0.1344592], "includesElement__electronegativity_gordy": [0.02316176, 0.028125], "includesElement__electronegativity_mulliken": [3.45356, 3.83469], "includesElement__electronegativity_nagle": [0.3419952, 0.4458174], "includesElement__electronegativity_pauling": [1.54, 2.1], "includesElement__electronegativity_sanderson": [0.4055462, 0.8753613], "includesElement__en_ghosh": [0.1233637, 0.1344592], "includesElement__en_pauling": [1.54, 2.1], "includesElement__evaporation_heat": [422.6, 585.0], "includesElement__fusion_heat": [18.8, 23.8], "includesElement__glawe_number": [51, 59], "includesElement__group_id": [4, 7], "includesElement__heat_of_formation": [473.0, 678.0], "includesElement__is_radioactive": [false, true], "includesElement__lattice_constant": [2.95, 2.74], "includesElement__mendeleev_number": [43, 56], "includesElement__molar_heat_capacity": [25.06], "includesElement__period": [4, 5], "includesElement__pettifor_number": [51, 58], "includesElement__specific_heat_capacity": [0.523], "includesElement__vdw_radius": [211.0, 216.0], "includesElement__vdw_radius_alvarez": [246.0, 244.0], "includesElement__vdw_radius_mm3": [239.0, 236.0], "includesElement__vdw_radius_uff": [317.5, 299.8], "includesElement__abundance_sea": [0.001], "includesElement__atomic_weight_uncertainty": [0.001, 3e-05], "includesElement__c6_gb": [1200.0, 939.0], "includesElement__covalent_radius_bragg": [140.0], "includesElement__electronegativity_allen": [8.17, 8.94], "includesElement__en_allen": [8.17, 8.94], "includesElement__metallic_radius": [132.0, 127.0], "includesElement__metallic_radius_c12": [147.0, 136.0], "includesElement__thermal_conductivity": [21.9, 50.6], "includesElement__vdw_radius_batsanov": [215.0, 205.0], "includesElement__c6": [1044.0], "includesElement__gas_basicity": [853.7], "includesElement__proton_affinity": [876.0], "formula": ["Tc1Ti1"], "spacegroup": ["221"], "thermalConductivity": [16.6499], "icsd": ["106142"], "band_gap": [0.0], "density": [8.174219], "density_atomic": [14.81596], "deprecated": [false], "efermi": [7.279157], "energy_above_hull": [0.0], "energy_per_atom": [-19.96991], "formation_energy_per_atom": [-0.5187], "homogeneous_poisson": [0.327], "is_gap_direct": [false], "is_magnetic": [false], "is_metal": [true], "is_stable": [true], "nelements": [2], "nsites": [2], "num_magnetic_sites": [0], "num_unique_magnetic_sites": [0], "theoretical": [false], "total_magnetization": [5.8e-06], "total_magnetization_normalized_formula_units": [5.8e-06], "total_magnetization_normalized_vol": [1.957348e-07], "uncorrected_energy_per_atom": [-19.96991], "universal_anisotropy": [0.335], "volume": [29.63192], "equilibrium_reaction_energy_per_atom": [-0.5187]}