{"includesElement": ["", "Ta", "Tc"], "includesElement___series_id": [8], "includesElement__abundance_crust": [2.0], "includesElement__atomic_number": [73, 43], "includesElement__atomic_radius": [145.0, 135.0], "includesElement__atomic_radius_rahm": [258.0, 252.0], "includesElement__atomic_volume": [10.9, 8.5], "includesElement__atomic_weight": [180.9479, 97.90721], "includesElement__covalent_radius_cordero": [170.0, 147.0], "includesElement__covalent_radius_pyykko": [146.0, 128.0], "includesElement__covalent_radius_pyykko_double": [126.0, 120.0], "includesElement__covalent_radius_pyykko_triple": [119.0, 110.0], "includesElement__density": [16.4, 11.0], "includesElement__dipole_polarizability": [74.0, 79.0], "includesElement__dipole_polarizability_unc": [20.0, 10.0], "includesElement__discovery_year": [1802, 1937], "includesElement__electron_affinity": [0.322, 0.55], "includesElement__electronegativity_allred-rochow": [0.0001548133, 0.0002197266], "includesElement__electronegativity_cottrell-sutton": [0.1503421, 0.1677051], "includesElement__electronegativity_ghosh": [0.234581, 0.1344592], "includesElement__electronegativity_gordy": [0.02260274, 0.028125], "includesElement__electronegativity_mulliken": [3.935785, 3.83469], "includesElement__electronegativity_nagle": [0.4072985, 0.4458174], "includesElement__electronegativity_pauling": [1.5, 2.1], "includesElement__electronegativity_sanderson": [0.8358832, 0.8753613], "includesElement__en_ghosh": [0.234581, 0.1344592], "includesElement__en_pauling": [1.5, 2.1], "includesElement__evaporation_heat": [758.0, 585.0], "includesElement__fusion_heat": [24.7, 23.8], "includesElement__glawe_number": [52, 59], "includesElement__group_id": [5, 7], "includesElement__heat_of_formation": [782.0, 678.0], "includesElement__is_radioactive": [false, true], "includesElement__lattice_constant": [3.31, 2.74], "includesElement__mendeleev_number": [49, 56], "includesElement__molar_heat_capacity": [25.36], "includesElement__period": [6, 5], "includesElement__pettifor_number": [53, 58], "includesElement__specific_heat_capacity": [0.14], "includesElement__vdw_radius": [222.0, 216.0], "includesElement__vdw_radius_alvarez": [253.0, 244.0], "includesElement__vdw_radius_mm3": [243.0, 236.0], "includesElement__vdw_radius_uff": [317.0, 299.8], "includesElement__abundance_sea": [2e-06], "includesElement__atomic_weight_uncertainty": [2e-05, 3e-05], "includesElement__c6_gb": [887.0, 939.0], "includesElement__electronegativity_allen": [7.93, 8.94], "includesElement__en_allen": [7.93, 8.94], "includesElement__metallic_radius": [134.0, 127.0], "includesElement__metallic_radius_c12": [146.0, 136.0], "includesElement__thermal_conductivity": [57.5, 50.6], "includesElement__vdw_radius_batsanov": [220.0, 205.0], "formula": ["Ta1Tc1"], "spacegroup": ["221"], "thermalConductivity": [37.5016], "icsd": ["106117"], "band_gap": [0.0], "density": [14.47306], "density_atomic": [16.00228], "deprecated": [false], "efermi": [7.696806], "energy_above_hull": [0.0], "energy_per_atom": [-37.846], "formation_energy_per_atom": [-0.5677502], "homogeneous_poisson": [0.286], "is_gap_direct": [false], "is_magnetic": [false], "is_metal": [true], "is_stable": [true], "nelements": [2], "nsites": [2], "num_magnetic_sites": [0], "num_unique_magnetic_sites": [0], "theoretical": [false], "total_magnetization": [3e-07], "total_magnetization_normalized_formula_units": [3e-07], "total_magnetization_normalized_vol": [9.373666e-09], "uncorrected_energy_per_atom": [-37.846], "universal_anisotropy": [0.305], "volume": [32.00455], "equilibrium_reaction_energy_per_atom": [-0.5677502]}