{"includesElement": ["", "Rh", "W"], "includesElement___series_id": [8], "includesElement__abundance_crust": [0.001, 1.25], "includesElement__atomic_number": [45, 74], "includesElement__atomic_radius": [135.0], "includesElement__atomic_radius_rahm": [233.0, 253.0], "includesElement__atomic_volume": [8.3, 9.53], "includesElement__atomic_weight": [102.9055, 183.84], "includesElement__covalent_radius_cordero": [142.0, 162.0], "includesElement__covalent_radius_pyykko": [125.0, 137.0], "includesElement__covalent_radius_pyykko_double": [110.0, 120.0], "includesElement__covalent_radius_pyykko_triple": [106.0, 115.0], "includesElement__density": [12.4, 19.3], "includesElement__dipole_polarizability": [66.0, 68.0], "includesElement__dipole_polarizability_unc": [10.0, 15.0], "includesElement__discovery_year": [1803, 1783], "includesElement__electron_affinity": [1.137, 0.81626], "includesElement__electronegativity_allred-rochow": [0.0002176, 0.0001838137], "includesElement__electronegativity_cottrell-sutton": [0.1649242, 0.1586899], "includesElement__electronegativity_ghosh": [0.1408379, 0.2390504], "includesElement__electronegativity_gordy": [0.0272, 0.02518248], "includesElement__electronegativity_mulliken": [4.29795, 4.340145], "includesElement__electronegativity_nagle": [0.5147142, 0.4451921], "includesElement__electronegativity_pauling": [2.28, 1.7], "includesElement__electronegativity_sanderson": [0.9761915, 1.019283], "includesElement__en_ghosh": [0.1408379, 0.2390504], "includesElement__en_pauling": [2.28, 1.7], "includesElement__evaporation_heat": [494.0, 824.0], "includesElement__fusion_heat": [21.8, 35.0], "includesElement__glawe_number": [63, 57], "includesElement__group_id": [9, 6], "includesElement__heat_of_formation": [556.0, 851.0], "includesElement__is_radioactive": [false], "includesElement__lattice_constant": [3.8, 3.16], "includesElement__mendeleev_number": [64, 53], "includesElement__molar_heat_capacity": [24.98, 24.27], "includesElement__period": [5, 6], "includesElement__pettifor_number": [66, 56], "includesElement__specific_heat_capacity": [0.243, 0.132], "includesElement__vdw_radius": [210.0, 218.0], "includesElement__vdw_radius_alvarez": [244.0, 257.0], "includesElement__vdw_radius_mm3": [234.0, 239.0], "includesElement__vdw_radius_uff": [292.9, 309.6], "includesElement__atomic_weight_uncertainty": [2e-05, 0.01], "includesElement__c6_gb": [708.0, 757.0], "includesElement__electronegativity_allen": [9.259, 8.67], "includesElement__en_allen": [9.259, 8.67], "includesElement__metallic_radius": [125.0, 130.0], "includesElement__metallic_radius_c12": [134.0, 139.0], "includesElement__thermal_conductivity": [150.0, 173.0], "includesElement__vdw_radius_batsanov": [200.0, 210.0], "includesElement__is_monoisotopic": [true], "includesElement__gas_basicity": [745.4], "includesElement__proton_affinity": [768.0], "includesElement__abundance_sea": [0.0001], "formula": ["Rh6W2"], "spacegroup": ["194"], "thermalConductivity": [9.36741], "icsd": ["105970"], "band_gap": [0.0], "density": [14.49679], "density_atomic": [14.10501], "deprecated": [false], "efermi": [7.476559], "energy_above_hull": [0.0], "energy_per_atom": [-31.21315], "formation_energy_per_atom": [-0.2690299], "homogeneous_poisson": [0.291], "is_gap_direct": [false], "is_magnetic": [false], "is_metal": [true], "is_stable": [true], "nelements": [2], "nsites": [8], "num_magnetic_sites": [0], "num_unique_magnetic_sites": [0], "theoretical": [false], "total_magnetization": [2.8e-06], "total_magnetization_normalized_formula_units": [1.4e-06], "total_magnetization_normalized_vol": [2.481388e-08], "uncorrected_energy_per_atom": [-31.21315], "universal_anisotropy": [0.058], "volume": [112.8401], "equilibrium_reaction_energy_per_atom": [-0.2690299]}