{"includesElement": ["", "Si", "Nb", "Ir"], "includesElement___series_id": [5, 8], "includesElement__abundance_crust": [282000.0, 20.0, 0.001], "includesElement__atomic_number": [14, 41, 77], "includesElement__atomic_radius": [110.0, 145.0, 135.0], "includesElement__atomic_radius_rahm": [232.0, 251.0, 240.0], "includesElement__atomic_volume": [12.1, 10.8, 8.54], "includesElement__atomic_weight": [28.085, 92.90637, 192.217], "includesElement__covalent_radius_cordero": [111.0, 164.0, 141.0], "includesElement__covalent_radius_pyykko": [116.0, 147.0, 122.0], "includesElement__covalent_radius_pyykko_double": [107.0, 125.0, 115.0], "includesElement__covalent_radius_pyykko_triple": [102.0, 116.0, 107.0], "includesElement__density": [2.3296, 8.57, 22.5622], "includesElement__dipole_polarizability": [37.3, 98.0, 54.0], "includesElement__dipole_polarizability_unc": [0.7, 8.0, 7.0], "includesElement__discovery_year": [1824, 1801, 1804], "includesElement__electron_affinity": [1.389521, 0.917406, 1.5638], "includesElement__electronegativity_allred-rochow": [0.0003084126, 0.0001295756, 0.0002620263], "includesElement__electronegativity_cottrell-sutton": [0.1891451, 0.1380131, 0.1787938], "includesElement__electronegativity_ghosh": [0.178503, 0.1280782, 0.25106], "includesElement__electronegativity_gordy": [0.03577586, 0.01904762, 0.03196721], "includesElement__electronegativity_mulliken": [4.770602, 3.838128, 5.26541], "includesElement__electronegativity_nagle": [0.4750986, 0.3708924, 0.5503212], "includesElement__electronegativity_pauling": [1.9, 1.6, 2.2], "includesElement__electronegativity_sanderson": [0.3468158, 0.5561695, 1.475998], "includesElement__en_ghosh": [0.178503, 0.1280782, 0.25106], "includesElement__en_pauling": [1.9, 1.6, 2.2], "includesElement__evaporation_heat": [383.0, 680.0, 604.0], "includesElement__fusion_heat": [50.6, 26.8, 27.61], "includesElement__glawe_number": [85, 53, 62], "includesElement__group_id": [14, 5, 9], "includesElement__heat_of_formation": [450.0, 733.0, 669.0], "includesElement__is_radioactive": [false], "includesElement__lattice_constant": [5.43, 3.3, 3.84], "includesElement__mendeleev_number": [88, 48, 65], "includesElement__molar_heat_capacity": [19.99, 24.6, 25.1], "includesElement__period": [3, 5, 6], "includesElement__pettifor_number": [85, 52, 65], "includesElement__specific_heat_capacity": [0.712, 0.265, 0.131], "includesElement__vdw_radius": [210.0, 218.0, 213.0], "includesElement__vdw_radius_alvarez": [219.0, 256.0, 241.0], "includesElement__vdw_radius_mm3": [229.0, 243.0, 236.0], "includesElement__vdw_radius_uff": [429.5, 316.5, 284.0], "includesElement__abundance_sea": [2.2, 1e-05], "includesElement__c6_gb": [308.0, 1140.0, 522.0], "includesElement__covalent_radius_bragg": [117.0], "includesElement__electronegativity_allen": [11.33, 8.34, 9.96], "includesElement__en_allen": [11.33, 8.34, 9.96], "includesElement__metallic_radius": [117.0, 134.0, 127.0], "includesElement__metallic_radius_c12": [138.0, 146.0, 136.0], "includesElement__thermal_conductivity": [149.0, 53.7, 147.0], "includesElement__vdw_radius_batsanov": [210.0, 215.0, 200.0], "includesElement__c6": [305.0], "includesElement__vdw_radius_dreiding": [427.0], "includesElement__gas_basicity": [814.1], "includesElement__proton_affinity": [837.0], "includesElement__vdw_radius_bondi": [210.0], "includesElement__atomic_weight_uncertainty": [2e-05, 0.003], "includesElement__is_monoisotopic": [true], "formula": ["Ir4Nb4Si4"], "spacegroup": ["62"], "thermalConductivity": [9.67596], "icsd": ["411882"], "band_gap": [0.0], "density": [11.6283], "density_atomic": [14.9089], "deprecated": [false], "efermi": [8.548332], "energy_above_hull": [0.0], "energy_per_atom": [-8.980984], "formation_energy_per_atom": [-0.8592984], "homogeneous_poisson": [0.286], "is_gap_direct": [false], "is_magnetic": [false], "is_metal": [true], "is_stable": [true], "nelements": [3], "nsites": [12], "num_magnetic_sites": [0], "num_unique_magnetic_sites": [0], "theoretical": [false], "total_magnetization": [0.0], "total_magnetization_normalized_formula_units": [0.0], "total_magnetization_normalized_vol": [0.0], "uncorrected_energy_per_atom": [-29.54776], "universal_anisotropy": [0.171], "volume": [178.9068], "equilibrium_reaction_energy_per_atom": [-0.2122379]}