{"includesElement": ["", "Sb", "Er", "Pd"], "includesElement___series_id": [5, 9, 8], "includesElement__abundance_crust": [0.2, 3.5, 0.015], "includesElement__atomic_number": [51, 68, 46], "includesElement__atomic_radius": [145.0, 175.0, 140.0], "includesElement__atomic_radius_rahm": [246.0, 272.0, 215.0], "includesElement__atomic_volume": [18.4, 8.9], "includesElement__atomic_weight": [121.76, 167.259, 106.42], "includesElement__covalent_radius_cordero": [139.0, 189.0], "includesElement__covalent_radius_pyykko": [140.0, 165.0, 120.0], "includesElement__covalent_radius_pyykko_double": [133.0, 117.0], "includesElement__covalent_radius_pyykko_triple": [127.0, 112.0], "includesElement__density": [6.68, 9.07, 12.0], "includesElement__dipole_polarizability": [43.0, 150.0, 26.14], "includesElement__dipole_polarizability_unc": [2.0, 10.0, 0.1], "includesElement__electron_affinity": [1.046, 0.562], "includesElement__electronegativity_allred-rochow": [0.0003214286, 0.0001046832, 0.0004756944], "includesElement__electronegativity_cottrell-sutton": [0.212132, 0.1314257, 0.2389212], "includesElement__electronegativity_ghosh": [0.1918774, 0.212261, 0.1440276], "includesElement__electronegativity_gordy": [0.045, 0.01727273, 0.05708333], "includesElement__electronegativity_mulliken": [4.827195, 3.05385, 4.44943], "includesElement__electronegativity_nagle": [0.4880907, 0.4536061, 0.7259357], "includesElement__electronegativity_pauling": [2.05, 1.24, 2.2], "includesElement__electronegativity_sanderson": [0.7762722, 0.5576573, 1.124263], "includesElement__en_ghosh": [0.1918774, 0.212261, 0.1440276], "includesElement__en_pauling": [2.05, 1.24, 2.2], "includesElement__evaporation_heat": [195.2, 317.0, 372.4], "includesElement__fusion_heat": [20.08, 17.24], "includesElement__glawe_number": [91, 22, 65], "includesElement__group_id": [15, 10], "includesElement__heat_of_formation": [264.4, 316.4, 376.6], "includesElement__is_radioactive": [false], "includesElement__lattice_constant": [4.51, 3.56, 3.89], "includesElement__mendeleev_number": [96, 35, 68], "includesElement__molar_heat_capacity": [25.23, 28.12, 25.98], "includesElement__period": [5, 6], "includesElement__pettifor_number": [88, 23, 69], "includesElement__specific_heat_capacity": [0.207, 0.168, 0.246], "includesElement__vdw_radius": [206.0, 229.0, 210.0], "includesElement__vdw_radius_alvarez": [247.0, 283.0, 215.0], "includesElement__vdw_radius_mm3": [252.0, 267.0, 237.0], "includesElement__vdw_radius_uff": [442.0, 339.1, 289.9], "includesElement__abundance_sea": [0.00024, 8.7e-07], "includesElement__atomic_weight_uncertainty": [0.001, 0.003, 0.01], "includesElement__c6_gb": [504.0, 2150.0, 628.0], "includesElement__covalent_radius_bragg": [140.0], "includesElement__electronegativity_allen": [11.74, 9.402], "includesElement__en_allen": [11.74, 9.402], "includesElement__metallic_radius": [139.0, 128.0], "includesElement__metallic_radius_c12": [166.0, 137.0], "includesElement__thermal_conductivity": [24.43, 71.8], "includesElement__vdw_radius_batsanov": [220.0, 205.0], "includesElement__c6": [492.0], "includesElement__vdw_radius_dreiding": [435.0], "includesElement__vdw_radius_truhlar": [206.0], "includesElement__discovery_year": [1843, 1803], "includesElement__gas_basicity": [673.4], "includesElement__proton_affinity": [696.0], "formula": ["Er1Pd1Sb1", "ErSbPd"], "mp_id": ["11836"], "spacegroup": ["216"], "thermalConductivity": [5.20405, 7.65], "icsd": ["57259"], "band_gap": [0.2093], "density": [9.460226], "density_atomic": [23.13693], "deprecated": [false], "efermi": [5.994608], "energy_above_hull": [0.0], "energy_per_atom": [-28.76543], "formation_energy_per_atom": [-1.234697], "homogeneous_poisson": [0.29], "is_gap_direct": [false], "is_magnetic": [false], "is_metal": [false], "is_stable": [true], "nelements": [3], "nsites": [3], "num_magnetic_sites": [0], "num_unique_magnetic_sites": [0], "theoretical": [false], "total_magnetization": [0.0], "total_magnetization_normalized_formula_units": [0.0], "total_magnetization_normalized_vol": [0.0], "uncorrected_energy_per_atom": [-28.76543], "universal_anisotropy": [0.044], "volume": [69.4108], "cbm": [6.1112], "e_electronic": [18.34339], "e_ionic": [2.405762], "e_total": [20.74916], "equilibrium_reaction_energy_per_atom": [-0.1923677], "n": [4.282919], "vbm": [5.9019], "e_ij_max": [0.2833133]}