{"includesElement": ["", "Ag", "O", "Nb"], "includesElement___series_id": [8, 1], "includesElement__abundance_crust": [0.075, 461000.0, 20.0], "includesElement__atomic_number": [47, 8, 41], "includesElement__atomic_radius": [160.0, 60.0, 145.0], "includesElement__atomic_radius_rahm": [225.0, 171.0, 251.0], "includesElement__atomic_volume": [10.3, 14.0, 10.8], "includesElement__atomic_weight": [107.8682, 15.999, 92.90637], "includesElement__covalent_radius_cordero": [145.0, 66.0, 164.0], "includesElement__covalent_radius_pyykko": [128.0, 63.0, 147.0], "includesElement__covalent_radius_pyykko_double": [139.0, 57.0, 125.0], "includesElement__covalent_radius_pyykko_triple": [137.0, 53.0, 116.0], "includesElement__density": [10.5, 0.001308, 8.57], "includesElement__dipole_polarizability": [55.0, 5.3, 98.0], "includesElement__dipole_polarizability_unc": [8.0, 0.2], "includesElement__electron_affinity": [1.302, 1.461113, 0.917406], "includesElement__electronegativity_allred-rochow": [0.0002258301, 0.001146384, 0.0001295756], "includesElement__electronegativity_cottrell-sutton": [0.1700184, 0.2687419, 0.1380131], "includesElement__electronegativity_ghosh": [0.1472165, 0.304575, 0.1280782], "includesElement__electronegativity_gordy": [0.02890625, 0.07222222, 0.01904762], "includesElement__electronegativity_mulliken": [4.439117, 7.539584, 3.838128], "includesElement__electronegativity_nagle": [0.5848035, 1.042218, 0.3708924], "includesElement__electronegativity_pauling": [1.93, 3.44, 1.6], "includesElement__electronegativity_sanderson": [0.9437955, 0.9416494, 0.5561695], "includesElement__en_ghosh": [0.1472165, 0.304575, 0.1280782], "includesElement__en_pauling": [1.93, 3.44, 1.6], "includesElement__evaporation_heat": [254.1, 680.0], "includesElement__fusion_heat": [11.95, 26.8], "includesElement__glawe_number": [67, 97, 53], "includesElement__group_id": [11, 16, 5], "includesElement__heat_of_formation": [284.9, 249.229, 733.0], "includesElement__is_radioactive": [false], "includesElement__lattice_constant": [4.09, 6.83, 3.3], "includesElement__mendeleev_number": [72, 99, 48], "includesElement__molar_heat_capacity": [25.35, 29.378, 24.6], "includesElement__period": [5, 2], "includesElement__pettifor_number": [71, 101, 52], "includesElement__specific_heat_capacity": [0.235, 0.918, 0.265], "includesElement__vdw_radius": [211.0, 152.0, 218.0], "includesElement__vdw_radius_alvarez": [253.0, 150.0, 256.0], "includesElement__vdw_radius_mm3": [243.0, 182.0], "includesElement__vdw_radius_uff": [314.8, 350.0, 316.5], "includesElement__abundance_sea": [4e-05, 857000.0, 1e-05], "includesElement__atomic_weight_uncertainty": [0.0002, 2e-05], "includesElement__c6_gb": [341.0, 16.7, 1140.0], "includesElement__covalent_radius_bragg": [177.0, 65.0], "includesElement__electronegativity_allen": [11.05, 21.36, 8.34], "includesElement__en_allen": [11.05, 21.36, 8.34], "includesElement__metallic_radius": [134.0], "includesElement__metallic_radius_c12": [144.0, 146.0], "includesElement__thermal_conductivity": [429.0, 0.027, 53.7], "includesElement__vdw_radius_batsanov": [210.0, 155.0, 215.0], "includesElement__discovery_year": [1774, 1801], "includesElement__c6": [15.6], "includesElement__vdw_radius_dreiding": [340.46], "includesElement__gas_basicity": [459.6], "includesElement__proton_affinity": [485.2], "includesElement__vdw_radius_bondi": [152.0], "includesElement__vdw_radius_rt": [158.0], "includesElement__is_monoisotopic": [true], "formula": ["Ag1Nb1O3"], "spacegroup": ["221"], "thermalConductivity": [12.2468], "icsd": ["55649"], "band_gap": [1.3336], "density": [6.339902], "density_atomic": [13.03165], "deprecated": [false], "efermi": [2.011388], "energy_above_hull": [0.07085392], "energy_per_atom": [-7.705405], "formation_energy_per_atom": [-2.145198], "homogeneous_poisson": [0.317], "is_gap_direct": [false], "is_magnetic": [false], "is_metal": [false], "is_stable": [false], "nelements": [3], "nsites": [5], "num_magnetic_sites": [0], "num_unique_magnetic_sites": [0], "theoretical": [false], "total_magnetization": [2.86e-05], "total_magnetization_normalized_formula_units": [2.86e-05], "total_magnetization_normalized_vol": [4.389314e-07], "uncorrected_energy_per_atom": [-7.293205], "universal_anisotropy": [1.27], "volume": [65.15825], "cbm": [3.0815], "vbm": [1.7479]}