{"includesElement": ["", "Y", "Mo", "B"], "includesElement___series_id": [8, 5], "includesElement__abundance_crust": [33.0, 1.2, 10.0], "includesElement__atomic_number": [39, 42, 5], "includesElement__atomic_radius": [180.0, 145.0, 85.0], "includesElement__atomic_radius_rahm": [274.0, 244.0, 205.0], "includesElement__atomic_volume": [19.8, 9.4, 4.6], "includesElement__atomic_weight": [88.90584, 95.95, 10.81], "includesElement__covalent_radius_cordero": [190.0, 154.0, 84.0], "includesElement__covalent_radius_pyykko": [163.0, 138.0, 85.0], "includesElement__covalent_radius_pyykko_double": [130.0, 121.0, 78.0], "includesElement__covalent_radius_pyykko_triple": [124.0, 113.0, 73.0], "includesElement__density": [4.47, 10.2, 2.34], "includesElement__dipole_polarizability": [162.0, 87.0, 20.5], "includesElement__dipole_polarizability_unc": [12.0, 6.0, 0.1], "includesElement__discovery_year": [1789, 1778, 1808], "includesElement__electron_affinity": [0.307, 0.748, 0.279723], "includesElement__electronegativity_allred-rochow": [0.0001129135, 0.0001549044, 0.0003598616], "includesElement__electronegativity_cottrell-sutton": [0.1356647, 0.1462081, 0.1748949], "includesElement__electronegativity_ghosh": [0.1216986, 0.1312672, 0.184886], "includesElement__electronegativity_gordy": [0.01840491, 0.02137681, 0.03058824], "includesElement__electronegativity_mulliken": [3.26213, 3.920215, 4.288871], "includesElement__electronegativity_nagle": [0.2645668, 0.4100883, 0.5269739], "includesElement__electronegativity_pauling": [1.22, 2.16, 2.04], "includesElement__electronegativity_sanderson": [0.3923941, 0.685295, 0.2546274], "includesElement__en_ghosh": [0.1216986, 0.1312672, 0.184886], "includesElement__en_pauling": [1.22, 2.16, 2.04], "includesElement__evaporation_heat": [367.0, 590.0, 504.5], "includesElement__fusion_heat": [11.5, 28.0, 23.6], "includesElement__glawe_number": [21, 56, 86], "includesElement__group_id": [3, 6, 13], "includesElement__heat_of_formation": [424.7, 658.98, 565.0], "includesElement__is_radioactive": [false], "includesElement__lattice_constant": [3.65, 3.15, 8.73], "includesElement__mendeleev_number": [12, 52, 81], "includesElement__molar_heat_capacity": [26.53, 24.06, 11.087], "includesElement__period": [5, 2], "includesElement__pettifor_number": [19, 55, 86], "includesElement__specific_heat_capacity": [0.298, 0.251, 1.026], "includesElement__vdw_radius": [232.0, 217.0, 192.0], "includesElement__vdw_radius_alvarez": [275.0, 245.0, 191.0], "includesElement__vdw_radius_mm3": [271.0, 239.0, 215.0], "includesElement__vdw_radius_uff": [334.5, 305.2, 408.3], "includesElement__abundance_sea": [1.3e-05, 0.01, 4.44], "includesElement__atomic_weight_uncertainty": [2e-05, 0.01], "includesElement__c6_gb": [2600.0, 1030.0, 99.2], "includesElement__electronegativity_allen": [6.631, 8.71, 12.13], "includesElement__en_allen": [6.631, 8.71, 12.13], "includesElement__metallic_radius": [162.0, 130.0, 80.0], "includesElement__metallic_radius_c12": [180.0, 139.0, 98.0], "includesElement__vdw_radius_batsanov": [240.0, 210.0, 180.0], "includesElement__is_monoisotopic": [true], "includesElement__gas_basicity": [945.9], "includesElement__proton_affinity": [967.0], "includesElement__thermal_conductivity": [27.4], "includesElement__c6": [99.5], "includesElement__vdw_radius_dreiding": [402.0], "includesElement__vdw_radius_truhlar": [192.0], "formula": ["B28Mo12Y4"], "spacegroup": ["62"], "thermalConductivity": [9.9522], "icsd": ["39873"], "band_gap": [0.0], "density": [6.845696], "density_atomic": [9.976177], "deprecated": [false], "efermi": [8.320158], "energy_above_hull": [0.0], "energy_per_atom": [-14.2197], "formation_energy_per_atom": [-0.5875166], "is_gap_direct": [false], "is_magnetic": [false], "is_metal": [true], "is_stable": [true], "nelements": [3], "nsites": [44], "num_magnetic_sites": [0], "num_unique_magnetic_sites": [0], "theoretical": [false], "total_magnetization": [5e-07], "total_magnetization_normalized_formula_units": [1.25e-07], "total_magnetization_normalized_vol": [1.139077e-09], "uncorrected_energy_per_atom": [-14.2197], "volume": [438.9518], "equilibrium_reaction_energy_per_atom": [-0.001953742]}