{"includesElement": ["", "Rb", "I"], "includesElement___series_id": [3, 6], "includesElement__abundance_crust": [90.0, 0.45], "includesElement__atomic_number": [37, 53], "includesElement__atomic_radius": [235.0, 140.0], "includesElement__atomic_radius_rahm": [240.0, 238.0], "includesElement__atomic_volume": [55.9, 25.7], "includesElement__atomic_weight": [85.4678, 126.9045], "includesElement__covalent_radius_cordero": [220.0, 139.0], "includesElement__covalent_radius_pyykko": [210.0, 133.0], "includesElement__covalent_radius_pyykko_double": [202.0, 129.0], "includesElement__density": [1.53, 4.933], "includesElement__dipole_polarizability": [319.8, 32.9], "includesElement__dipole_polarizability_unc": [0.3, 1.3], "includesElement__discovery_year": [1861, 1811], "includesElement__electron_affinity": [0.48592, 3.059037], "includesElement__electronegativity_allred-rochow": [4.988662e-05, 0.0004296455], "includesElement__electronegativity_cottrell-sutton": [0.1023533, 0.2390457], "includesElement__electronegativity_ghosh": [0.104686, 0.2195176], "includesElement__electronegativity_gordy": [0.01047619, 0.05714286], "includesElement__electronegativity_mulliken": [2.331524, 6.755148], "includesElement__electronegativity_nagle": [0.1462314, 0.5969904], "includesElement__electronegativity_pauling": [0.82, 2.66], "includesElement__electronegativity_sanderson": [0.1764136, 0.9386429], "includesElement__en_ghosh": [0.104686, 0.2195176], "includesElement__en_pauling": [0.82, 2.66], "includesElement__evaporation_heat": [75.8, 41.95], "includesElement__fusion_heat": [2.2, 15.52], "includesElement__glawe_number": [9, 99], "includesElement__group_id": [1, 17], "includesElement__heat_of_formation": [80.9, 106.757], "includesElement__is_radioactive": [false], "includesElement__lattice_constant": [5.59, 7.72], "includesElement__mendeleev_number": [4, 109], "includesElement__molar_heat_capacity": [31.06, 54.43], "includesElement__period": [5], "includesElement__pettifor_number": [9, 97], "includesElement__specific_heat_capacity": [0.363, 0.214], "includesElement__vdw_radius": [303.0, 198.0], "includesElement__vdw_radius_alvarez": [321.0, 204.0], "includesElement__vdw_radius_mm3": [325.0, 236.0], "includesElement__vdw_radius_uff": [411.4, 450.0], "includesElement__abundance_sea": [0.12, 0.06], "includesElement__atomic_weight_uncertainty": [0.0003, 3e-05], "includesElement__c6_gb": [4660.0, 389.0], "includesElement__covalent_radius_bragg": [225.0, 140.0], "includesElement__electronegativity_allen": [4.177, 13.95], "includesElement__en_allen": [4.177, 13.95], "includesElement__metallic_radius": [216.0], "includesElement__metallic_radius_c12": [248.0, 139.0], "includesElement__thermal_conductivity": [58.2], "includesElement__vdw_radius_batsanov": [290.0, 210.0], "includesElement__c6": [4769.0, 385.0], "includesElement__vdw_radius_truhlar": [303.0], "includesElement__covalent_radius_pyykko_triple": [125.0], "includesElement__is_monoisotopic": [true], "includesElement__vdw_radius_dreiding": [415.0], "includesElement__gas_basicity": [583.5], "includesElement__proton_affinity": [608.2], "includesElement__vdw_radius_bondi": [198.0], "includesElement__vdw_radius_rt": [203.0], "formula": ["I1Rb1"], "spacegroup": ["221"], "thermalConductivity": [0.545854], "icsd": ["44619"], "band_gap": [3.3463], "density": [4.019878], "density_atomic": [43.86357], "deprecated": [false], "efermi": [0.5182763], "energy_above_hull": [0.02972292], "energy_per_atom": [-2.918401], "formation_energy_per_atom": [-1.691451], "homogeneous_poisson": [0.286], "is_gap_direct": [false], "is_magnetic": [false], "is_metal": [false], "is_stable": [false], "nelements": [2], "nsites": [2], "num_magnetic_sites": [0], "num_unique_magnetic_sites": [0], "theoretical": [false], "total_magnetization": [0.0], "total_magnetization_normalized_formula_units": [0.0], "total_magnetization_normalized_vol": [0.0], "uncorrected_energy_per_atom": [-20.93437], "universal_anisotropy": [1.958], "volume": [87.72715], "cbm": [3.7229], "vbm": [0.3766]}