{"includesElement": ["", "Ca", "B", "C"], "includesElement___series_id": [4, 5, 1], "includesElement__abundance_crust": [41500.0, 10.0, 200.0], "includesElement__atomic_number": [20, 5, 6], "includesElement__atomic_radius": [180.0, 85.0, 70.0], "includesElement__atomic_radius_rahm": [270.0, 205.0, 190.0], "includesElement__atomic_volume": [29.9, 4.6, 5.3], "includesElement__atomic_weight": [40.078, 10.81, 12.011], "includesElement__covalent_radius_cordero": [176.0, 84.0, 73.0], "includesElement__covalent_radius_pyykko": [171.0, 85.0, 75.0], "includesElement__covalent_radius_pyykko_double": [147.0, 78.0, 67.0], "includesElement__covalent_radius_pyykko_triple": [133.0, 73.0, 60.0], "includesElement__density": [1.54, 2.34, 2.2], "includesElement__dipole_polarizability": [160.8, 20.5, 11.3], "includesElement__dipole_polarizability_unc": [4.0, 0.1, 0.2], "includesElement__discovery_year": [1808], "includesElement__electron_affinity": [0.02455, 0.279723, 1.262119], "includesElement__electronegativity_allred-rochow": [9.746589e-05, 0.0003598616, 0.0005777778], "includesElement__electronegativity_cottrell-sutton": [0.1290994, 0.1748949, 0.2081666], "includesElement__electronegativity_ghosh": [0.1154119, 0.184886, 0.224776], "includesElement__electronegativity_gordy": [0.01666667, 0.03058824, 0.04333333], "includesElement__electronegativity_mulliken": [3.068853, 4.288871, 6.261208], "includesElement__electronegativity_nagle": [0.2316939, 0.5269739, 0.7073926], "includesElement__electronegativity_pauling": [1.0, 2.04, 2.55], "includesElement__electronegativity_sanderson": [0.1901577, 0.2546274, 0.427525], "includesElement__en_ghosh": [0.1154119, 0.184886, 0.224776], "includesElement__en_pauling": [1.0, 2.04, 2.55], "includesElement__evaporation_heat": [153.6, 504.5], "includesElement__fusion_heat": [9.2, 23.6], "includesElement__glawe_number": [16, 86, 87], "includesElement__group_id": [2, 13, 14], "includesElement__heat_of_formation": [177.8, 565.0, 716.87], "includesElement__is_radioactive": [false], "includesElement__lattice_constant": [5.58, 8.73, 3.57], "includesElement__mendeleev_number": [7, 81, 87], "includesElement__molar_heat_capacity": [25.929, 11.087, 8.517], "includesElement__period": [4, 2], "includesElement__pettifor_number": [16, 86, 95], "includesElement__specific_heat_capacity": [0.647, 1.026, 0.709], "includesElement__vdw_radius": [231.0, 192.0, 170.0], "includesElement__vdw_radius_alvarez": [262.0, 191.0, 177.0], "includesElement__vdw_radius_mm3": [281.0, 215.0, 204.0], "includesElement__vdw_radius_uff": [339.9, 408.3, 385.1], "includesElement__abundance_sea": [412.0, 4.44, 28.0], "includesElement__atomic_weight_uncertainty": [0.004], "includesElement__c6_gb": [2230.0, 99.2, 47.9], "includesElement__covalent_radius_bragg": [170.0, 77.0], "includesElement__electronegativity_allen": [6.113, 12.13, 15.05], "includesElement__en_allen": [6.113, 12.13, 15.05], "includesElement__metallic_radius": [174.0, 80.0], "includesElement__metallic_radius_c12": [197.0, 98.0, 86.0], "includesElement__vdw_radius_batsanov": [240.0, 180.0, 170.0], "includesElement__c6": [2163.0, 99.5, 46.6], "includesElement__vdw_radius_truhlar": [231.0, 192.0], "includesElement__thermal_conductivity": [27.4, 1.59], "includesElement__vdw_radius_dreiding": [402.0, 389.83], "includesElement__vdw_radius_bondi": [170.0], "includesElement__vdw_radius_rt": [177.0], "formula": ["B4C4Ca2"], "spacegroup": ["131"], "thermalConductivity": [20.4665], "icsd": ["41788"], "band_gap": [0.0], "density": [2.601915], "density_atomic": [10.94146], "deprecated": [false], "efermi": [5.298789], "energy_above_hull": [0.1449434], "energy_per_atom": [-6.950562], "formation_energy_per_atom": [-0.1862193], "homogeneous_poisson": [0.242], "is_gap_direct": [false], "is_magnetic": [false], "is_metal": [true], "is_stable": [false], "nelements": [3], "nsites": [10], "num_magnetic_sites": [0], "num_unique_magnetic_sites": [0], "theoretical": [false], "total_magnetization": [5.9e-06], "total_magnetization_normalized_formula_units": [2.95e-06], "total_magnetization_normalized_vol": [5.392334e-08], "uncorrected_energy_per_atom": [-6.950562], "universal_anisotropy": [2.376], "volume": [109.4146]}