{"includesElement": ["", "F", "V", "Hf"], "includesElement___series_id": [6, 8], "includesElement__abundance_crust": [585.0, 120.0, 3.0], "includesElement__atomic_number": [9, 23, 72], "includesElement__atomic_radius": [50.0, 135.0, 155.0], "includesElement__atomic_radius_rahm": [163.0, 252.0, 264.0], "includesElement__atomic_volume": [17.1, 8.35, 13.6], "includesElement__atomic_weight": [18.9984, 50.9415, 178.49], "includesElement__covalent_radius_cordero": [57.0, 153.0, 175.0], "includesElement__covalent_radius_pyykko": [64.0, 134.0, 152.0], "includesElement__covalent_radius_pyykko_double": [59.0, 112.0, 128.0], "includesElement__covalent_radius_pyykko_triple": [53.0, 106.0, 122.0], "includesElement__density": [0.001553, 6.0, 13.3], "includesElement__dipole_polarizability": [3.74, 87.0, 103.0], "includesElement__dipole_polarizability_unc": [0.08, 10.0, 6.0], "includesElement__discovery_year": [1886, 1830, 1923], "includesElement__electron_affinity": [3.40119, 0.525, 0.014], "includesElement__electronegativity_allred-rochow": [0.001269531, 0.0001837826, 0.00013634], "includesElement__electronegativity_cottrell-sutton": [0.2850439, 0.1569295, 0.1439572], "includesElement__electronegativity_ghosh": [0.344443, 0.1273344, 0.229987], "includesElement__electronegativity_gordy": [0.08125, 0.02462687, 0.02072368], "includesElement__electronegativity_mulliken": [10.412, 3.635594, 3.419535], "includesElement__electronegativity_nagle": [1.232373, 0.3859078, 0.3386421], "includesElement__electronegativity_pauling": [3.98, 1.63, 1.3], "includesElement__electronegativity_sanderson": [1.017681, 0.4388898, 0.7352125], "includesElement__en_ghosh": [0.344443, 0.1273344, 0.229987], "includesElement__en_pauling": [3.98, 1.63, 1.3], "includesElement__evaporation_heat": [6.54, 460.0, 575.0], "includesElement__fusion_heat": [0.51, 17.5, 25.1], "includesElement__glawe_number": [102, 54, 50], "includesElement__group_id": [17, 5, 4], "includesElement__heat_of_formation": [79.335, 515.5, 618.4], "includesElement__is_radioactive": [false], "includesElement__mendeleev_number": [106, 47, 45], "includesElement__molar_heat_capacity": [31.304, 24.89, 25.73], "includesElement__period": [2, 4, 6], "includesElement__pettifor_number": [102, 54, 50], "includesElement__specific_heat_capacity": [0.824, 0.489, 0.144], "includesElement__vdw_radius": [147.0, 207.0, 223.0], "includesElement__vdw_radius_alvarez": [146.0, 242.0, 263.0], "includesElement__vdw_radius_mm3": [171.0, 229.0, 253.0], "includesElement__vdw_radius_uff": [336.4, 314.4, 314.1], "includesElement__abundance_sea": [1.3, 0.0025, 7e-06], "includesElement__atomic_weight_uncertainty": [6e-09, 0.0001, 0.02], "includesElement__c6_gb": [10.2, 955.0, 1040.0], "includesElement__covalent_radius_bragg": [67.0], "includesElement__electronegativity_allen": [24.8, 9.063, 6.83], "includesElement__en_allen": [24.8, 9.063, 6.83], "includesElement__thermal_conductivity": [0.028, 30.7, 23.0], "includesElement__vdw_radius_batsanov": [150.0, 205.0, 225.0], "includesElement__c6": [9.52, 832.0], "includesElement__is_monoisotopic": [true], "includesElement__vdw_radius_dreiding": [347.2], "includesElement__gas_basicity": [315.1, 836.8], "includesElement__proton_affinity": [340.1, 859.4], "includesElement__vdw_radius_bondi": [147.0], "includesElement__vdw_radius_rt": [146.0], "includesElement__lattice_constant": [3.02, 3.2], "includesElement__metallic_radius": [122.0, 144.0], "includesElement__metallic_radius_c12": [134.0, 159.0], "formula": ["F6Hf1V1"], "spacegroup": ["225"], "thermalConductivity": [3.90932], "icsd": ["94455"], "band_gap": [3.2213], "density": [4.288465], "density_atomic": [16.62208], "deprecated": [false], "efermi": [0.2827703], "energy_above_hull": [0.0], "energy_per_atom": [-13.45338], "formation_energy_per_atom": [-3.70552], "is_gap_direct": [false], "is_magnetic": [true], "is_metal": [false], "is_stable": [true], "nelements": [3], "nsites": [8], "num_magnetic_sites": [1], "num_unique_magnetic_sites": [1], "theoretical": [false], "total_magnetization": [3.000001], "total_magnetization_normalized_formula_units": [3.000001], "total_magnetization_normalized_vol": [0.02256036], "uncorrected_energy_per_atom": [-13.45338], "volume": [132.9766], "cbm": [3.3231], "e_electronic": [2.177047], "e_ionic": [2.345598], "e_total": [4.522646], "equilibrium_reaction_energy_per_atom": [-0.009051318], "n": [1.475482], "vbm": [0.1018]}