{"includesElement": ["", "Cd", "N", "C"], "includesElement___series_id": [8, 1], "includesElement__abundance_crust": [0.15, 19.0, 200.0], "includesElement__atomic_number": [48, 7, 6], "includesElement__atomic_radius": [155.0, 65.0, 70.0], "includesElement__atomic_radius_rahm": [238.0, 179.0, 190.0], "includesElement__atomic_volume": [13.1, 17.3, 5.3], "includesElement__atomic_weight": [112.414, 14.007, 12.011], "includesElement__covalent_radius_cordero": [144.0, 71.0, 73.0], "includesElement__covalent_radius_pyykko": [136.0, 71.0, 75.0], "includesElement__covalent_radius_pyykko_double": [144.0, 60.0, 67.0], "includesElement__density": [8.69, 0.001145, 2.2], "includesElement__dipole_polarizability": [46.0, 7.4, 11.3], "includesElement__dipole_polarizability_unc": [2.0, 0.2], "includesElement__discovery_year": [1817, 1772], "includesElement__electronegativity_allred-rochow": [0.000235186, 0.000773656, 0.0005777778], "includesElement__electronegativity_cottrell-sutton": [0.1788443, 0.2343706, 0.2081666], "includesElement__electronegativity_ghosh": [0.1504066, 0.26493, 0.224776], "includesElement__electronegativity_gordy": [0.03198529, 0.05492958, 0.04333333], "includesElement__electronegativity_mulliken": [4.496911, 6.567065, 6.261208], "includesElement__electronegativity_nagle": [0.6389612, 0.8774979, 0.7073926], "includesElement__electronegativity_pauling": [1.69, 3.04, 2.55], "includesElement__electronegativity_sanderson": [0.801562, 0.577482, 0.427525], "includesElement__en_ghosh": [0.1504066, 0.26493, 0.224776], "includesElement__en_pauling": [1.69, 3.04, 2.55], "includesElement__evaporation_heat": [59.1], "includesElement__fusion_heat": [6.11], "includesElement__glawe_number": [75, 88, 87], "includesElement__group_id": [12, 15, 14], "includesElement__heat_of_formation": [111.8, 472.44, 716.87], "includesElement__is_radioactive": [false], "includesElement__lattice_constant": [2.98, 4.039, 3.57], "includesElement__mendeleev_number": [78, 93, 87], "includesElement__molar_heat_capacity": [26.02, 29.124, 8.517], "includesElement__period": [5, 2], "includesElement__pettifor_number": [75, 100, 95], "includesElement__specific_heat_capacity": [0.232, 1.04, 0.709], "includesElement__vdw_radius": [218.0, 155.0, 170.0], "includesElement__vdw_radius_alvarez": [249.0, 166.0, 177.0], "includesElement__vdw_radius_mm3": [250.0, 193.0, 204.0], "includesElement__vdw_radius_uff": [284.8, 366.0, 385.1], "includesElement__abundance_sea": [0.00011, 0.5, 28.0], "includesElement__atomic_weight_uncertainty": [0.004], "includesElement__c6_gb": [405.0, 25.7, 47.9], "includesElement__covalent_radius_bragg": [160.0, 65.0, 77.0], "includesElement__electronegativity_allen": [8.995, 18.13, 15.05], "includesElement__en_allen": [8.995, 18.13, 15.05], "includesElement__metallic_radius": [138.0], "includesElement__metallic_radius_c12": [151.0, 53.0, 86.0], "includesElement__thermal_conductivity": [96.9, 0.026, 1.59], "includesElement__vdw_radius_batsanov": [220.0, 160.0, 170.0], "includesElement__covalent_radius_pyykko_triple": [54.0, 60.0], "includesElement__electron_affinity": [-1.4, 1.262119], "includesElement__c6": [24.2, 46.6], "includesElement__vdw_radius_dreiding": [366.21, 389.83], "includesElement__gas_basicity": [318.7], "includesElement__proton_affinity": [342.2], "includesElement__vdw_radius_bondi": [155.0, 170.0], "includesElement__vdw_radius_rt": [164.0, 177.0], "formula": ["C4Cd2N4"], "spacegroup": ["215"], "thermalConductivity": [0.700637], "icsd": ["20748"], "band_gap": [6.0857], "density": [2.023363], "density_atomic": [26.99157], "deprecated": [false], "efermi": [-4.596807], "energy_above_hull": [0.2802646], "energy_per_atom": [-6.995198], "formation_energy_per_atom": [0.2235812], "is_gap_direct": [false], "is_magnetic": [false], "is_metal": [false], "is_stable": [false], "nelements": [3], "nsites": [10], "num_magnetic_sites": [0], "num_unique_magnetic_sites": [0], "theoretical": [false], "total_magnetization": [0.0009062], "total_magnetization_normalized_formula_units": [0.0004531], "total_magnetization_normalized_vol": [3.357345e-06], "uncorrected_energy_per_atom": [-6.850798], "volume": [269.9157], "cbm": [1.4543], "vbm": [-4.6314]}