{"includesElement": ["", "Hg", "Mn"], "includesElement___series_id": [8], "includesElement__abundance_crust": [0.085, 950.0], "includesElement__atomic_number": [80, 25], "includesElement__atomic_radius": [150.0, 140.0], "includesElement__atomic_radius_rahm": [229.0, 242.0], "includesElement__atomic_volume": [14.8, 7.39], "includesElement__atomic_weight": [200.592, 54.93804], "includesElement__covalent_radius_cordero": [132.0, 150.0], "includesElement__covalent_radius_pyykko": [133.0, 119.0], "includesElement__covalent_radius_pyykko_double": [142.0, 105.0], "includesElement__density": [13.5336, 7.3], "includesElement__dipole_polarizability": [33.91, 68.0], "includesElement__dipole_polarizability_unc": [0.34, 9.0], "includesElement__electronegativity_allred-rochow": [0.0002459155, 0.0002542193], "includesElement__electronegativity_cottrell-sutton": [0.1808501, 0.1739313], "includesElement__electronegativity_ghosh": [0.169, 0.1352844], "includesElement__electronegativity_gordy": [0.03270677, 0.0302521], "includesElement__electronegativity_mulliken": [5.218752, 3.717009], "includesElement__electronegativity_nagle": [0.7073231, 0.4686656], "includesElement__electronegativity_pauling": [1.9, 1.55], "includesElement__electronegativity_sanderson": [1.164789, 0.6707264], "includesElement__en_ghosh": [0.169, 0.1352844], "includesElement__en_pauling": [1.9, 1.55], "includesElement__evaporation_heat": [58.5, 221.0], "includesElement__fusion_heat": [2.295, 13.4], "includesElement__glawe_number": [76, 72], "includesElement__group_id": [12, 7], "includesElement__heat_of_formation": [61.38, 283.3], "includesElement__is_radioactive": [false], "includesElement__lattice_constant": [2.99, 8.89], "includesElement__mendeleev_number": [79, 55], "includesElement__molar_heat_capacity": [27.983, 26.32], "includesElement__period": [6, 4], "includesElement__pettifor_number": [74, 60], "includesElement__specific_heat_capacity": [0.14, 0.479], "includesElement__vdw_radius": [223.0, 205.0], "includesElement__vdw_radius_alvarez": [245.0], "includesElement__vdw_radius_mm3": [253.0, 224.0], "includesElement__vdw_radius_uff": [270.5, 296.1], "includesElement__abundance_sea": [3e-05, 0.0002], "includesElement__atomic_weight_uncertainty": [0.003, 3e-06], "includesElement__c6_gb": [268.0, 635.0], "includesElement__electronegativity_allen": [10.44, 10.34], "includesElement__en_allen": [10.44, 10.34], "includesElement__metallic_radius": [139.0, 118.0], "includesElement__metallic_radius_c12": [151.0, 127.0], "includesElement__thermal_conductivity": [8.3], "includesElement__vdw_radius_batsanov": [205.0], "includesElement__covalent_radius_pyykko_triple": [103.0], "includesElement__discovery_year": [1774], "includesElement__covalent_radius_bragg": [147.0], "includesElement__c6": [552.0], "includesElement__is_monoisotopic": [true], "includesElement__gas_basicity": [774.4], "includesElement__proton_affinity": [797.3], "formula": ["Hg1Mn1"], "spacegroup": ["221"], "thermalConductivity": [1.19396], "icsd": ["104321"], "band_gap": [0.0], "density": [11.47904], "density_atomic": [18.48214], "deprecated": [false], "efermi": [4.521448], "energy_above_hull": [0.3327279], "energy_per_atom": [-31.69284], "formation_energy_per_atom": [0.3327279], "homogeneous_poisson": [0.357], "is_gap_direct": [false], "is_magnetic": [true], "is_metal": [true], "is_stable": [false], "nelements": [2], "nsites": [2], "num_magnetic_sites": [1], "num_unique_magnetic_sites": [1], "theoretical": [false], "total_magnetization": [3.914816], "total_magnetization_normalized_formula_units": [3.914816], "total_magnetization_normalized_vol": [0.1059081], "uncorrected_energy_per_atom": [-4.40012], "universal_anisotropy": [3.507], "volume": [36.96427]}