{"includesElement": ["", "Ba", "H", "Br"], "includesElement___series_id": [4, 1, 6], "includesElement__abundance_crust": [425.0, 1400.0, 2.4], "includesElement__atomic_number": [56, 1, 35], "includesElement__atomic_radius": [215.0, 25.0, 115.0], "includesElement__atomic_radius_rahm": [293.0, 154.0, 219.0], "includesElement__atomic_volume": [39.0, 14.1, 23.5], "includesElement__atomic_weight": [137.327, 1.008, 79.904], "includesElement__covalent_radius_cordero": [215.0, 31.0, 120.0], "includesElement__covalent_radius_pyykko": [196.0, 32.0, 114.0], "includesElement__covalent_radius_pyykko_double": [161.0, 109.0], "includesElement__covalent_radius_pyykko_triple": [149.0, 110.0], "includesElement__density": [3.62, 8.2e-05, 3.1028], "includesElement__dipole_polarizability": [272.0, 4.50711, 21.0], "includesElement__dipole_polarizability_unc": [10.0, 3e-05, 1.0], "includesElement__discovery_year": [1808, 1766, 1826], "includesElement__electron_affinity": [0.14462, 0.754195, 3.363588], "includesElement__electronegativity_allred-rochow": [7.418784e-05, 0.0009765625, 0.0005847953], "includesElement__electronegativity_cottrell-sutton": [0.1205853, 0.1767767, 0.2581989], "includesElement__electronegativity_ghosh": [0.1586786, 0.2638, 0.2412578], "includesElement__electronegativity_gordy": [0.01454082, 0.03125, 0.06666667], "includesElement__electronegativity_mulliken": [2.678142, 7.176315, 7.588699], "includesElement__electronegativity_nagle": [0.1944556, 0.6053882, 0.6933613], "includesElement__electronegativity_pauling": [0.89, 2.2, 2.96], "includesElement__electronegativity_sanderson": [0.3032951, 2.187771, 1.049026], "includesElement__en_ghosh": [0.1586786, 0.2638, 0.2412578], "includesElement__en_pauling": [0.89, 2.2, 2.96], "includesElement__evaporation_heat": [142.0, 0.904, 29.56], "includesElement__fusion_heat": [7.66, 0.117, 10.57], "includesElement__glawe_number": [14, 103, 100], "includesElement__group_id": [2, 1, 17], "includesElement__heat_of_formation": [179.1, 217.998, 111.85], "includesElement__is_radioactive": [false], "includesElement__lattice_constant": [5.02, 3.75, 6.67], "includesElement__mendeleev_number": [9, 105, 108], "includesElement__molar_heat_capacity": [28.07, 28.836, 75.69], "includesElement__period": [6, 1, 4], "includesElement__pettifor_number": [14, 103, 98], "includesElement__specific_heat_capacity": [0.204, 14.304, 0.474], "includesElement__vdw_radius": [268.0, 110.0, 185.0], "includesElement__vdw_radius_alvarez": [303.0, 120.0, 186.0], "includesElement__vdw_radius_mm3": [307.0, 162.0, 222.0], "includesElement__vdw_radius_uff": [370.3, 288.6, 418.9], "includesElement__abundance_sea": [0.013, 108000.0, 67.3], "includesElement__atomic_weight_uncertainty": [0.007], "includesElement__c6_gb": [5540.0, 6.51, 187.0], "includesElement__covalent_radius_bragg": [210.0, 119.0], "includesElement__electronegativity_allen": [5.211, 13.61, 15.88], "includesElement__en_allen": [5.211, 13.61, 15.88], "includesElement__metallic_radius": [198.0], "includesElement__metallic_radius_c12": [222.0, 78.0, 117.0], "includesElement__vdw_radius_batsanov": [270.0, 190.0], "includesElement__vdw_radius_truhlar": [268.0], "includesElement__thermal_conductivity": [0.1815, 0.005], "includesElement__c6": [6.499027, 162.0], "includesElement__vdw_radius_dreiding": [319.5, 395.0], "includesElement__vdw_radius_bondi": [120.0, 183.0], "includesElement__vdw_radius_rt": [110.0, 187.0], "includesElement__gas_basicity": [531.2], "includesElement__proton_affinity": [554.4], "formula": ["Ba2Br2H2"], "spacegroup": ["129"], "thermalConductivity": [1.23482], "icsd": ["37202"], "band_gap": [3.2113], "density": [4.674038], "density_atomic": [25.84449], "deprecated": [false], "efermi": [0.726989], "energy_above_hull": [0.0], "energy_per_atom": [-3.97936], "formation_energy_per_atom": [-1.690304], "is_gap_direct": [true], "is_magnetic": [false], "is_metal": [false], "is_stable": [true], "nelements": [3], "nsites": [6], "num_magnetic_sites": [0], "num_unique_magnetic_sites": [0], "theoretical": [false], "total_magnetization": [0.0], "total_magnetization_normalized_formula_units": [0.0], "total_magnetization_normalized_vol": [0.0], "uncorrected_energy_per_atom": [-16.03159], "volume": [155.0669], "cbm": [3.8818], "e_electronic": [3.893015], "e_ionic": [6.069452], "e_total": [9.962467], "equilibrium_reaction_energy_per_atom": [-0.06959927], "n": [1.973073], "vbm": [0.6705]}