{"includesElement": ["", "Nb", "B", "C"], "includesElement___series_id": [8, 5, 1], "includesElement__abundance_crust": [20.0, 10.0, 200.0], "includesElement__atomic_number": [41, 5, 6], "includesElement__atomic_radius": [145.0, 85.0, 70.0], "includesElement__atomic_radius_rahm": [251.0, 205.0, 190.0], "includesElement__atomic_volume": [10.8, 4.6, 5.3], "includesElement__atomic_weight": [92.90637, 10.81, 12.011], "includesElement__covalent_radius_cordero": [164.0, 84.0, 73.0], "includesElement__covalent_radius_pyykko": [147.0, 85.0, 75.0], "includesElement__covalent_radius_pyykko_double": [125.0, 78.0, 67.0], "includesElement__covalent_radius_pyykko_triple": [116.0, 73.0, 60.0], "includesElement__density": [8.57, 2.34, 2.2], "includesElement__dipole_polarizability": [98.0, 20.5, 11.3], "includesElement__dipole_polarizability_unc": [8.0, 0.1, 0.2], "includesElement__discovery_year": [1801, 1808], "includesElement__electron_affinity": [0.917406, 0.279723, 1.262119], "includesElement__electronegativity_allred-rochow": [0.0001295756, 0.0003598616, 0.0005777778], "includesElement__electronegativity_cottrell-sutton": [0.1380131, 0.1748949, 0.2081666], "includesElement__electronegativity_ghosh": [0.1280782, 0.184886, 0.224776], "includesElement__electronegativity_gordy": [0.01904762, 0.03058824, 0.04333333], "includesElement__electronegativity_mulliken": [3.838128, 4.288871, 6.261208], "includesElement__electronegativity_nagle": [0.3708924, 0.5269739, 0.7073926], "includesElement__electronegativity_pauling": [1.6, 2.04, 2.55], "includesElement__electronegativity_sanderson": [0.5561695, 0.2546274, 0.427525], "includesElement__en_ghosh": [0.1280782, 0.184886, 0.224776], "includesElement__en_pauling": [1.6, 2.04, 2.55], "includesElement__evaporation_heat": [680.0, 504.5], "includesElement__fusion_heat": [26.8, 23.6], "includesElement__glawe_number": [53, 86, 87], "includesElement__group_id": [5, 13, 14], "includesElement__heat_of_formation": [733.0, 565.0, 716.87], "includesElement__is_radioactive": [false], "includesElement__lattice_constant": [3.3, 8.73, 3.57], "includesElement__mendeleev_number": [48, 81, 87], "includesElement__molar_heat_capacity": [24.6, 11.087, 8.517], "includesElement__period": [5, 2], "includesElement__pettifor_number": [52, 86, 95], "includesElement__specific_heat_capacity": [0.265, 1.026, 0.709], "includesElement__vdw_radius": [218.0, 192.0, 170.0], "includesElement__vdw_radius_alvarez": [256.0, 191.0, 177.0], "includesElement__vdw_radius_mm3": [243.0, 215.0, 204.0], "includesElement__vdw_radius_uff": [316.5, 408.3, 385.1], "includesElement__abundance_sea": [1e-05, 4.44, 28.0], "includesElement__atomic_weight_uncertainty": [2e-05], "includesElement__c6_gb": [1140.0, 99.2, 47.9], "includesElement__electronegativity_allen": [8.34, 12.13, 15.05], "includesElement__en_allen": [8.34, 12.13, 15.05], "includesElement__metallic_radius": [134.0, 80.0], "includesElement__metallic_radius_c12": [146.0, 98.0, 86.0], "includesElement__thermal_conductivity": [53.7, 27.4, 1.59], "includesElement__vdw_radius_batsanov": [215.0, 180.0, 170.0], "includesElement__is_monoisotopic": [true], "includesElement__c6": [99.5, 46.6], "includesElement__vdw_radius_dreiding": [402.0, 389.83], "includesElement__vdw_radius_truhlar": [192.0], "includesElement__covalent_radius_bragg": [77.0], "includesElement__vdw_radius_bondi": [170.0], "includesElement__vdw_radius_rt": [177.0], "formula": ["B6C2Nb6"], "spacegroup": ["63"], "thermalConductivity": [21.5358], "icsd": ["411622"], "band_gap": [0.0], "density": [7.204753], "density_atomic": [10.64029], "deprecated": [false], "efermi": [7.451604], "energy_above_hull": [0.01805229], "energy_per_atom": [-9.174754], "formation_energy_per_atom": [-0.6646459], "is_gap_direct": [false], "is_magnetic": [false], "is_metal": [true], "is_stable": [false], "nelements": [3], "nsites": [14], "num_magnetic_sites": [0], "num_unique_magnetic_sites": [0], "theoretical": [false], "total_magnetization": [0.0067739], "total_magnetization_normalized_formula_units": [0.00338695], "total_magnetization_normalized_vol": [4.54734e-05], "uncorrected_energy_per_atom": [-9.174754], "volume": [148.964]}