{"includesElement": ["", "As", "P", "B"], "includesElement___series_id": [5, 1], "includesElement__abundance_crust": [1.8, 1050.0, 10.0], "includesElement__atomic_number": [33, 15, 5], "includesElement__atomic_radius": [115.0, 100.0, 85.0], "includesElement__atomic_radius_rahm": [231.0, 223.0, 205.0], "includesElement__atomic_volume": [13.1, 17.0, 4.6], "includesElement__atomic_weight": [74.92159, 30.97376, 10.81], "includesElement__covalent_radius_cordero": [119.0, 107.0, 84.0], "includesElement__covalent_radius_pyykko": [121.0, 111.0, 85.0], "includesElement__covalent_radius_pyykko_double": [114.0, 102.0, 78.0], "includesElement__covalent_radius_pyykko_triple": [106.0, 94.0, 73.0], "includesElement__density": [5.75, 1.823, 2.34], "includesElement__dipole_polarizability": [30.0, 25.0, 20.5], "includesElement__dipole_polarizability_unc": [1.0, 0.1], "includesElement__electron_affinity": [0.804, 0.746607, 0.279723], "includesElement__electronegativity_allred-rochow": [0.0004302985, 0.0003895788, 0.0003598616], "includesElement__electronegativity_cottrell-sutton": [0.22818, 0.2079501, 0.1748949], "includesElement__electronegativity_ghosh": [0.2068208, 0.206931, 0.184886], "includesElement__electronegativity_gordy": [0.05206612, 0.04324324, 0.03058824], "includesElement__electronegativity_mulliken": [5.2965, 5.616646, 4.288871], "includesElement__electronegativity_nagle": [0.5503212, 0.5848035, 0.5269739], "includesElement__electronegativity_pauling": [2.18, 2.19, 2.04], "includesElement__electronegativity_sanderson": [0.8253373, 0.4510269, 0.2546274], "includesElement__en_ghosh": [0.2068208, 0.206931, 0.184886], "includesElement__en_pauling": [2.18, 2.19, 2.04], "includesElement__evaporation_heat": [32.4, 49.8, 504.5], "includesElement__glawe_number": [90, 89, 86], "includesElement__group_id": [15, 13], "includesElement__heat_of_formation": [302.5, 316.5, 565.0], "includesElement__is_radioactive": [false], "includesElement__lattice_constant": [4.13, 7.17, 8.73], "includesElement__mendeleev_number": [95, 94, 81], "includesElement__molar_heat_capacity": [24.64, 23.824, 11.087], "includesElement__period": [4, 3, 2], "includesElement__pettifor_number": [89, 90, 86], "includesElement__specific_heat_capacity": [0.329, 0.769, 1.026], "includesElement__vdw_radius": [185.0, 180.0, 192.0], "includesElement__vdw_radius_alvarez": [188.0, 190.0, 191.0], "includesElement__vdw_radius_mm3": [236.0, 222.0, 215.0], "includesElement__vdw_radius_uff": [423.0, 414.7, 408.3], "includesElement__abundance_sea": [0.0037, 0.06, 4.44], "includesElement__atomic_weight_uncertainty": [6e-06, 5e-09], "includesElement__c6_gb": [260.0, 187.0, 99.2], "includesElement__covalent_radius_bragg": [126.0], "includesElement__electronegativity_allen": [13.08, 13.33, 12.13], "includesElement__en_allen": [13.08, 13.33, 12.13], "includesElement__metallic_radius": [121.0, 110.0, 80.0], "includesElement__metallic_radius_c12": [148.0, 128.0, 98.0], "includesElement__vdw_radius_batsanov": [205.0, 195.0, 180.0], "includesElement__c6": [246.0, 185.0, 99.5], "includesElement__is_monoisotopic": [true], "includesElement__vdw_radius_dreiding": [415.0, 402.0], "includesElement__vdw_radius_bondi": [185.0, 180.0], "includesElement__discovery_year": [1669, 1808], "includesElement__fusion_heat": [2.51, 23.6], "includesElement__gas_basicity": [604.8], "includesElement__proton_affinity": [626.8], "includesElement__thermal_conductivity": [27.4], "includesElement__vdw_radius_truhlar": [192.0], "formula": ["As1B2P1"], "spacegroup": ["115"], "thermalConductivity": [43.4143], "icsd": ["181293"], "band_gap": [1.3756], "density": [4.128915], "density_atomic": [12.82102], "deprecated": [false], "efermi": [6.573153], "energy_above_hull": [0.06785286], "energy_per_atom": [-9.840226], "formation_energy_per_atom": [-0.2396471], "homogeneous_poisson": [0.135], "is_gap_direct": [false], "is_magnetic": [false], "is_metal": [false], "is_stable": [false], "nelements": [3], "nsites": [4], "num_magnetic_sites": [0], "num_unique_magnetic_sites": [0], "theoretical": [true], "total_magnetization": [0.0001896], "total_magnetization_normalized_formula_units": [0.0001896], "total_magnetization_normalized_vol": [3.697054e-06], "uncorrected_energy_per_atom": [-6.054533], "universal_anisotropy": [0.137], "volume": [51.28407], "cbm": [7.9365], "e_electronic": [9.55912], "e_ionic": [0.102768], "e_total": [9.661888], "n": [3.091783], "vbm": [6.5609], "e_ij_max": [0.05451793]}