{"includesElement": ["", "Nb", "Au"], "includesElement___series_id": [8], "includesElement__abundance_crust": [20.0, 0.004], "includesElement__atomic_number": [41, 79], "includesElement__atomic_radius": [145.0, 135.0], "includesElement__atomic_radius_rahm": [251.0, 226.0], "includesElement__atomic_volume": [10.8, 10.2], "includesElement__atomic_weight": [92.90637, 196.9666], "includesElement__covalent_radius_cordero": [164.0, 136.0], "includesElement__covalent_radius_pyykko": [147.0, 124.0], "includesElement__covalent_radius_pyykko_double": [125.0, 121.0], "includesElement__covalent_radius_pyykko_triple": [116.0, 123.0], "includesElement__density": [8.57, 19.3], "includesElement__dipole_polarizability": [98.0, 36.0], "includesElement__dipole_polarizability_unc": [8.0, 3.0], "includesElement__discovery_year": [1801], "includesElement__electron_affinity": [0.917406, 2.30863], "includesElement__electronegativity_allred-rochow": [0.0001295756, 0.0002406348], "includesElement__electronegativity_cottrell-sutton": [0.1380131, 0.1727388], "includesElement__electronegativity_ghosh": [0.1280782, 0.26137], "includesElement__electronegativity_gordy": [0.01904762, 0.02983871], "includesElement__electronegativity_mulliken": [3.838128, 5.767091], "includesElement__electronegativity_nagle": [0.3708924, 0.67354], "includesElement__electronegativity_pauling": [1.6, 2.4], "includesElement__electronegativity_sanderson": [0.5561695, 1.426701], "includesElement__en_ghosh": [0.1280782, 0.26137], "includesElement__en_pauling": [1.6, 2.4], "includesElement__evaporation_heat": [680.0, 340.0], "includesElement__fusion_heat": [26.8, 12.68], "includesElement__glawe_number": [53, 66], "includesElement__group_id": [5, 11], "includesElement__heat_of_formation": [733.0, 368.2], "includesElement__is_radioactive": [false], "includesElement__lattice_constant": [3.3, 4.08], "includesElement__mendeleev_number": [48, 73], "includesElement__molar_heat_capacity": [24.6, 25.418], "includesElement__period": [5, 6], "includesElement__pettifor_number": [52, 70], "includesElement__specific_heat_capacity": [0.265, 0.129], "includesElement__vdw_radius": [218.0, 214.0], "includesElement__vdw_radius_alvarez": [256.0, 232.0], "includesElement__vdw_radius_mm3": [243.0], "includesElement__vdw_radius_uff": [316.5, 329.3], "includesElement__abundance_sea": [1e-05, 4e-06], "includesElement__atomic_weight_uncertainty": [2e-05, 5e-06], "includesElement__c6_gb": [1140.0, 427.0], "includesElement__electronegativity_allen": [8.34, 11.33], "includesElement__en_allen": [8.34, 11.33], "includesElement__metallic_radius": [134.0], "includesElement__metallic_radius_c12": [146.0, 144.0], "includesElement__thermal_conductivity": [53.7, 318.0], "includesElement__vdw_radius_batsanov": [215.0, 210.0], "includesElement__is_monoisotopic": [true], "formula": ["Au2Nb3"], "spacegroup": ["139"], "thermalConductivity": [5.45603], "icsd": ["54403"], "band_gap": [0.0], "density": [12.49751], "density_atomic": [17.87501], "deprecated": [false], "efermi": [5.567984], "energy_above_hull": [0.0], "energy_per_atom": [-35.26011], "formation_energy_per_atom": [-0.1856826], "homogeneous_poisson": [0.348], "is_gap_direct": [false], "is_magnetic": [false], "is_metal": [true], "is_stable": [true], "nelements": [2], "nsites": [5], "num_magnetic_sites": [0], "num_unique_magnetic_sites": [0], "theoretical": [false], "total_magnetization": [0.0], "total_magnetization_normalized_formula_units": [0.0], "total_magnetization_normalized_vol": [0.0], "uncorrected_energy_per_atom": [-35.26011], "universal_anisotropy": [0.324], "volume": [89.37505], "equilibrium_reaction_energy_per_atom": [-0.085393]}