{"includesElement": ["", "S", "Au"], "includesElement___series_id": [1, 8], "includesElement__abundance_crust": [350.0, 0.004], "includesElement__atomic_number": [16, 79], "includesElement__atomic_radius": [100.0, 135.0], "includesElement__atomic_radius_rahm": [214.0, 226.0], "includesElement__atomic_volume": [15.5, 10.2], "includesElement__atomic_weight": [32.06, 196.9666], "includesElement__covalent_radius_cordero": [105.0, 136.0], "includesElement__covalent_radius_pyykko": [103.0, 124.0], "includesElement__covalent_radius_pyykko_double": [94.0, 121.0], "includesElement__covalent_radius_pyykko_triple": [95.0, 123.0], "includesElement__density": [2.07, 19.3], "includesElement__dipole_polarizability": [19.4, 36.0], "includesElement__dipole_polarizability_unc": [0.1, 3.0], "includesElement__electron_affinity": [2.077104, 2.30863], "includesElement__electronegativity_allred-rochow": [0.0005137148, 0.0002406348], "includesElement__electronegativity_cottrell-sutton": [0.2300274, 0.1727388], "includesElement__electronegativity_ghosh": [0.23596, 0.26137], "includesElement__electronegativity_gordy": [0.05291262, 0.02983871], "includesElement__electronegativity_mulliken": [6.218557, 5.767091], "includesElement__electronegativity_nagle": [0.6762644, 0.67354], "includesElement__electronegativity_pauling": [2.58, 2.4], "includesElement__electronegativity_sanderson": [0.6397251, 1.426701], "includesElement__en_ghosh": [0.23596, 0.26137], "includesElement__en_pauling": [2.58, 2.4], "includesElement__evaporation_heat": [10.5, 340.0], "includesElement__fusion_heat": [1.23, 12.68], "includesElement__glawe_number": [96, 66], "includesElement__group_id": [16, 11], "includesElement__heat_of_formation": [277.17, 368.2], "includesElement__is_radioactive": [false], "includesElement__lattice_constant": [10.47, 4.08], "includesElement__mendeleev_number": [100, 73], "includesElement__molar_heat_capacity": [22.7, 25.418], "includesElement__period": [3, 6], "includesElement__pettifor_number": [94, 70], "includesElement__specific_heat_capacity": [0.708, 0.129], "includesElement__vdw_radius": [180.0, 214.0], "includesElement__vdw_radius_alvarez": [189.0, 232.0], "includesElement__vdw_radius_mm3": [215.0, 243.0], "includesElement__vdw_radius_uff": [403.5, 329.3], "includesElement__abundance_sea": [905.0, 4e-06], "includesElement__c6_gb": [140.0, 427.0], "includesElement__covalent_radius_bragg": [102.0], "includesElement__electronegativity_allen": [15.31, 11.33], "includesElement__en_allen": [15.31, 11.33], "includesElement__metallic_radius": [104.0, 134.0], "includesElement__metallic_radius_c12": [127.0, 144.0], "includesElement__thermal_conductivity": [0.27, 318.0], "includesElement__vdw_radius_batsanov": [180.0, 210.0], "includesElement__c6": [134.0], "includesElement__vdw_radius_dreiding": [403.0], "includesElement__gas_basicity": [640.2], "includesElement__proton_affinity": [664.3], "includesElement__vdw_radius_bondi": [180.0], "includesElement__vdw_radius_rt": [181.0], "includesElement__atomic_weight_uncertainty": [5e-06], "includesElement__is_monoisotopic": [true], "formula": ["Au4S2"], "spacegroup": ["224"], "thermalConductivity": [0.142596], "icsd": ["612282"], "band_gap": [1.9091], "density": [9.644302], "density_atomic": [24.4492], "deprecated": [false], "efermi": [1.376625], "energy_above_hull": [0.0], "energy_per_atom": [-36.51966], "formation_energy_per_atom": [-0.1180212], "homogeneous_poisson": [0.458], "is_gap_direct": [true], "is_magnetic": [false], "is_metal": [false], "is_stable": [true], "nelements": [2], "nsites": [6], "num_magnetic_sites": [0], "num_unique_magnetic_sites": [0], "theoretical": [false], "total_magnetization": [0.0], "total_magnetization_normalized_formula_units": [0.0], "total_magnetization_normalized_vol": [0.0], "uncorrected_energy_per_atom": [-36.51966], "universal_anisotropy": [0.32], "volume": [146.6952], "cbm": [3.2218], "e_electronic": [6.962842], "e_ionic": [0.1915378], "e_total": [7.15438], "equilibrium_reaction_energy_per_atom": [-0.1180212], "n": [2.63872], "vbm": [1.3127]}