{"includesElement": ["", "Sn", "Pd", "Tb"], "includesElement___series_id": [7, 8, 9], "includesElement__abundance_crust": [2.3, 0.015, 1.2], "includesElement__atomic_number": [50, 46, 65], "includesElement__atomic_radius": [145.0, 140.0, 175.0], "includesElement__atomic_radius_rahm": [248.0, 215.0, 276.0], "includesElement__atomic_volume": [16.3, 8.9, 19.2], "includesElement__atomic_weight": [118.71, 106.42, 158.9254], "includesElement__covalent_radius_cordero": [139.0, 194.0], "includesElement__covalent_radius_pyykko": [140.0, 120.0, 168.0], "includesElement__covalent_radius_pyykko_double": [130.0, 117.0, 135.0], "includesElement__covalent_radius_pyykko_triple": [132.0, 112.0], "includesElement__density": [7.287, 12.0, 8.23], "includesElement__dipole_polarizability": [53.0, 26.14, 170.0], "includesElement__dipole_polarizability_unc": [6.0, 0.1, 20.0], "includesElement__electron_affinity": [1.112067, 0.562, 1.165], "includesElement__electronegativity_allred-rochow": [0.0002882653, 0.0004756944, 0.0001009779], "includesElement__electronegativity_cottrell-sutton": [0.2008909, 0.2389212, 0.130247], "includesElement__electronegativity_ghosh": [0.178052, 0.1440276, 0.198863], "includesElement__electronegativity_gordy": [0.04035714, 0.05708333, 0.01696429], "includesElement__electronegativity_mulliken": [4.227992, 4.44943, 3.5144], "includesElement__electronegativity_nagle": [0.4225986, 0.7259357, 0.4014652], "includesElement__electronegativity_pauling": [1.96, 2.2], "includesElement__electronegativity_sanderson": [0.7622797, 1.124263, 0.5163695], "includesElement__en_ghosh": [0.178052, 0.1440276, 0.198863], "includesElement__en_pauling": [1.96, 2.2], "includesElement__evaporation_heat": [296.0, 372.4, 389.0], "includesElement__fusion_heat": [7.07, 17.24], "includesElement__glawe_number": [83, 65, 25], "includesElement__group_id": [14, 10], "includesElement__heat_of_formation": [301.2, 376.6, 388.7], "includesElement__is_radioactive": [false], "includesElement__lattice_constant": [5.82, 3.89, 3.6], "includesElement__mendeleev_number": [90, 68, 29], "includesElement__molar_heat_capacity": [26.99, 25.98, 28.91], "includesElement__period": [5, 6], "includesElement__pettifor_number": [83, 69, 26], "includesElement__specific_heat_capacity": [0.227, 0.246, 0.182], "includesElement__vdw_radius": [217.0, 210.0, 233.0], "includesElement__vdw_radius_alvarez": [242.0, 215.0, 279.0], "includesElement__vdw_radius_mm3": [259.0, 237.0, 270.0], "includesElement__vdw_radius_uff": [439.2, 289.9, 345.1], "includesElement__abundance_sea": [4e-06, 1.4e-07], "includesElement__atomic_weight_uncertainty": [0.007, 0.01, 2e-05], "includesElement__c6_gb": [715.0, 628.0, 2590.0], "includesElement__covalent_radius_bragg": [140.0], "includesElement__electronegativity_allen": [10.79, 9.402], "includesElement__en_allen": [10.79, 9.402], "includesElement__metallic_radius": [142.0, 128.0], "includesElement__metallic_radius_c12": [163.0, 137.0], "includesElement__thermal_conductivity": [66.8, 71.8, 11.1], "includesElement__vdw_radius_batsanov": [225.0, 205.0], "includesElement__c6": [659.0], "includesElement__vdw_radius_dreiding": [447.0], "includesElement__vdw_radius_bondi": [217.0], "includesElement__discovery_year": [1803, 1843], "includesElement__gas_basicity": [673.4], "includesElement__proton_affinity": [696.0], "includesElement__is_monoisotopic": [true], "formula": ["Pd2Sn1Tb1"], "spacegroup": ["225"], "thermalConductivity": [1.00417], "icsd": ["105694"], "band_gap": [0.0], "density": [10.51577], "density_atomic": [19.36268], "deprecated": [false], "efermi": [6.366287], "energy_above_hull": [0.0], "energy_per_atom": [-5.61961], "formation_energy_per_atom": [-0.8678104], "is_gap_direct": [false], "is_magnetic": [false], "is_metal": [true], "is_stable": [true], "nelements": [3], "nsites": [4], "num_magnetic_sites": [0], "num_unique_magnetic_sites": [0], "theoretical": [false], "total_magnetization": [7e-07], "total_magnetization_normalized_formula_units": [7e-07], "total_magnetization_normalized_vol": [9.038007e-09], "uncorrected_energy_per_atom": [-26.36349], "volume": [77.45071], "equilibrium_reaction_energy_per_atom": [-0.02379635]}