{"includesElement": ["", "Be", "Lu"], "includesElement___series_id": [4, 8], "includesElement__abundance_crust": [2.8, 0.8], "includesElement__atomic_number": [4, 71], "includesElement__atomic_radius": [105.0, 175.0], "includesElement__atomic_radius_rahm": [219.0, 270.0], "includesElement__atomic_volume": [5.0, 17.8], "includesElement__atomic_weight": [9.012183, 174.9668], "includesElement__covalent_radius_cordero": [96.0, 187.0], "includesElement__covalent_radius_pyykko": [102.0, 162.0], "includesElement__covalent_radius_pyykko_double": [90.0, 131.0], "includesElement__covalent_radius_pyykko_triple": [85.0, 131.0], "includesElement__density": [1.85, 9.84], "includesElement__dipole_polarizability": [37.74, 137.0], "includesElement__dipole_polarizability_unc": [0.03, 7.0], "includesElement__discovery_year": [1798, 1907], "includesElement__electron_affinity": [-2.4, 0.34], "includesElement__electronegativity_allred-rochow": [0.0001874279, 0.0001143118], "includesElement__electronegativity_cottrell-sutton": [0.1382666, 0.1360828], "includesElement__electronegativity_ghosh": [0.144986, 0.22565], "includesElement__electronegativity_gordy": [0.01911765, 0.01851852], "includesElement__electronegativity_mulliken": [3.461349, 2.882935], "includesElement__electronegativity_nagle": [0.3756148, 0.4987805], "includesElement__electronegativity_pauling": [1.57, 1.0], "includesElement__electronegativity_sanderson": [0.1268473, 0.6027398], "includesElement__en_ghosh": [0.144986, 0.22565], "includesElement__en_pauling": [1.57, 1.0], "includesElement__evaporation_heat": [309.0, 414.0], "includesElement__fusion_heat": [12.21], "includesElement__glawe_number": [77, 19], "includesElement__group_id": [2], "includesElement__heat_of_formation": [324.0, 427.6], "includesElement__is_radioactive": [false], "includesElement__lattice_constant": [2.29, 3.51], "includesElement__mendeleev_number": [75, 41], "includesElement__molar_heat_capacity": [16.443, 26.86], "includesElement__period": [2, 6], "includesElement__pettifor_number": [77, 21], "includesElement__specific_heat_capacity": [1.825, 0.154], "includesElement__vdw_radius": [153.0, 224.0], "includesElement__vdw_radius_alvarez": [198.0, 274.0], "includesElement__vdw_radius_mm3": [223.0, 265.0], "includesElement__vdw_radius_uff": [274.5, 364.0], "includesElement__abundance_sea": [5.6e-06, 1.5e-07], "includesElement__atomic_weight_uncertainty": [5e-07, 0.0001], "includesElement__c6_gb": [214.0, 2020.0], "includesElement__covalent_radius_bragg": [115.0], "includesElement__electronegativity_allen": [9.323, 6.455], "includesElement__en_allen": [9.323, 6.455], "includesElement__metallic_radius": [89.0], "includesElement__metallic_radius_c12": [112.0], "includesElement__thermal_conductivity": [201.0], "includesElement__vdw_radius_batsanov": [190.0], "includesElement__c6": [227.0], "includesElement__is_monoisotopic": [true], "includesElement__vdw_radius_truhlar": [153.0], "includesElement__gas_basicity": [970.6], "includesElement__proton_affinity": [992.0], "formula": ["Be26Lu2"], "spacegroup": ["226"], "thermalConductivity": [12.6346], "icsd": ["616321"], "band_gap": [0.0], "density": [3.746014], "density_atomic": [9.249557], "deprecated": [false], "efermi": [4.093938], "energy_above_hull": [0.0], "energy_per_atom": [-3.9764], "formation_energy_per_atom": [-0.1811103], "is_gap_direct": [false], "is_magnetic": [false], "is_metal": [true], "is_stable": [true], "nelements": [2], "nsites": [28], "num_magnetic_sites": [0], "num_unique_magnetic_sites": [0], "theoretical": [false], "total_magnetization": [9e-07], "total_magnetization_normalized_formula_units": [4.5e-07], "total_magnetization_normalized_vol": [3.47507e-09], "uncorrected_energy_per_atom": [-6.942875], "volume": [258.9876], "equilibrium_reaction_energy_per_atom": [-0.1811103]}