{"includesElement": ["", "O", "Pb", "Hf"], "includesElement___series_id": [1, 7, 8], "includesElement__abundance_crust": [461000.0, 14.0, 3.0], "includesElement__atomic_number": [8, 82, 72], "includesElement__atomic_radius": [60.0, 180.0, 155.0], "includesElement__atomic_radius_rahm": [171.0, 249.0, 264.0], "includesElement__atomic_volume": [14.0, 18.3, 13.6], "includesElement__atomic_weight": [15.999, 207.2, 178.49], "includesElement__covalent_radius_cordero": [66.0, 146.0, 175.0], "includesElement__covalent_radius_pyykko": [63.0, 144.0, 152.0], "includesElement__covalent_radius_pyykko_double": [57.0, 135.0, 128.0], "includesElement__covalent_radius_pyykko_triple": [53.0, 137.0, 122.0], "includesElement__density": [0.001308, 11.3, 13.3], "includesElement__dipole_polarizability": [5.3, 47.0, 103.0], "includesElement__dipole_polarizability_unc": [0.2, 3.0, 6.0], "includesElement__discovery_year": [1774, 1923], "includesElement__electron_affinity": [1.461113, 0.3567432, 0.014], "includesElement__electronegativity_allred-rochow": [0.001146384, 0.000272473, 0.00013634], "includesElement__electronegativity_cottrell-sutton": [0.2687419, 0.1980811, 0.1439572], "includesElement__electronegativity_ghosh": [0.304575, 0.177911, 0.229987], "includesElement__electronegativity_gordy": [0.07222222, 0.03923611, 0.02072368], "includesElement__electronegativity_mulliken": [7.539584, 3.886711, 3.419535], "includesElement__electronegativity_nagle": [1.042218, 0.4398663, 0.3386421], "includesElement__electronegativity_pauling": [3.44, 1.8, 1.3], "includesElement__electronegativity_sanderson": [0.9416494, 0.9313226, 0.7352125], "includesElement__en_ghosh": [0.304575, 0.177911, 0.229987], "includesElement__en_pauling": [3.44, 1.8, 1.3], "includesElement__glawe_number": [97, 82, 50], "includesElement__group_id": [16, 14, 4], "includesElement__heat_of_formation": [249.229, 195.2, 618.4], "includesElement__is_radioactive": [false], "includesElement__lattice_constant": [6.83, 4.95, 3.2], "includesElement__mendeleev_number": [99, 91, 45], "includesElement__molar_heat_capacity": [29.378, 26.84, 25.73], "includesElement__period": [2, 6], "includesElement__pettifor_number": [101, 82, 50], "includesElement__specific_heat_capacity": [0.918, 0.13, 0.144], "includesElement__vdw_radius": [152.0, 202.0, 223.0], "includesElement__vdw_radius_alvarez": [150.0, 260.0, 263.0], "includesElement__vdw_radius_mm3": [182.0, 274.0, 253.0], "includesElement__vdw_radius_uff": [350.0, 429.7, 314.1], "includesElement__abundance_sea": [857000.0, 3e-05, 7e-06], "includesElement__c6_gb": [16.7, 534.0, 1040.0], "includesElement__covalent_radius_bragg": [65.0], "includesElement__electronegativity_allen": [21.36, 10.97, 6.83], "includesElement__en_allen": [21.36, 10.97, 6.83], "includesElement__thermal_conductivity": [0.027, 35.3, 23.0], "includesElement__vdw_radius_batsanov": [155.0, 230.0, 225.0], "includesElement__c6": [15.6], "includesElement__vdw_radius_dreiding": [340.46], "includesElement__gas_basicity": [459.6], "includesElement__proton_affinity": [485.2], "includesElement__vdw_radius_bondi": [152.0, 202.0], "includesElement__vdw_radius_rt": [158.0], "includesElement__evaporation_heat": [177.8, 575.0], "includesElement__fusion_heat": [4.77, 25.1], "includesElement__atomic_weight_uncertainty": [0.1, 0.02], "includesElement__metallic_radius": [150.0, 144.0], "includesElement__metallic_radius_c12": [170.0, 159.0], "formula": ["Hf1O3Pb1"], "spacegroup": ["221"], "thermalConductivity": [10.6517], "icsd": ["161702"], "band_gap": [2.4149], "density": [10.03605], "density_atomic": [14.35139], "deprecated": [false], "efermi": [4.243896], "energy_above_hull": [0.0402784], "energy_per_atom": [-26.67642], "formation_energy_per_atom": [-2.812718], "homogeneous_poisson": [0.277], "is_gap_direct": [false], "is_magnetic": [false], "is_metal": [false], "is_stable": [false], "nelements": [3], "nsites": [5], "num_magnetic_sites": [0], "num_unique_magnetic_sites": [0], "theoretical": [false], "total_magnetization": [0.0], "total_magnetization_normalized_formula_units": [0.0], "total_magnetization_normalized_vol": [0.0], "uncorrected_energy_per_atom": [-8.249783], "universal_anisotropy": [0.278], "volume": [71.75694], "cbm": [6.4525], "vbm": [4.0376]}