{"includesElement": ["", "Pb", "Ir"], "includesElement___series_id": [7, 8], "includesElement__abundance_crust": [14.0, 0.001], "includesElement__atomic_number": [82, 77], "includesElement__atomic_radius": [180.0, 135.0], "includesElement__atomic_radius_rahm": [249.0, 240.0], "includesElement__atomic_volume": [18.3, 8.54], "includesElement__atomic_weight": [207.2, 192.217], "includesElement__covalent_radius_cordero": [146.0, 141.0], "includesElement__covalent_radius_pyykko": [144.0, 122.0], "includesElement__covalent_radius_pyykko_double": [135.0, 115.0], "includesElement__covalent_radius_pyykko_triple": [137.0, 107.0], "includesElement__density": [11.3, 22.5622], "includesElement__dipole_polarizability": [47.0, 54.0], "includesElement__dipole_polarizability_unc": [3.0, 7.0], "includesElement__electron_affinity": [0.3567432, 1.5638], "includesElement__electronegativity_allred-rochow": [0.000272473, 0.0002620263], "includesElement__electronegativity_cottrell-sutton": [0.1980811, 0.1787938], "includesElement__electronegativity_ghosh": [0.177911, 0.25106], "includesElement__electronegativity_gordy": [0.03923611, 0.03196721], "includesElement__electronegativity_mulliken": [3.886711, 5.26541], "includesElement__electronegativity_nagle": [0.4398663, 0.5503212], "includesElement__electronegativity_pauling": [1.8, 2.2], "includesElement__electronegativity_sanderson": [0.9313226, 1.475998], "includesElement__en_ghosh": [0.177911, 0.25106], "includesElement__en_pauling": [1.8, 2.2], "includesElement__evaporation_heat": [177.8, 604.0], "includesElement__fusion_heat": [4.77, 27.61], "includesElement__glawe_number": [82, 62], "includesElement__group_id": [14, 9], "includesElement__heat_of_formation": [195.2, 669.0], "includesElement__is_radioactive": [false], "includesElement__lattice_constant": [4.95, 3.84], "includesElement__mendeleev_number": [91, 65], "includesElement__molar_heat_capacity": [26.84, 25.1], "includesElement__period": [6], "includesElement__pettifor_number": [82, 65], "includesElement__specific_heat_capacity": [0.13, 0.131], "includesElement__vdw_radius": [202.0, 213.0], "includesElement__vdw_radius_alvarez": [260.0, 241.0], "includesElement__vdw_radius_mm3": [274.0, 236.0], "includesElement__vdw_radius_uff": [429.7, 284.0], "includesElement__abundance_sea": [3e-05], "includesElement__atomic_weight_uncertainty": [0.1, 0.003], "includesElement__c6_gb": [534.0, 522.0], "includesElement__electronegativity_allen": [10.97, 9.96], "includesElement__en_allen": [10.97, 9.96], "includesElement__metallic_radius": [150.0, 127.0], "includesElement__metallic_radius_c12": [170.0, 136.0], "includesElement__thermal_conductivity": [35.3, 147.0], "includesElement__vdw_radius_batsanov": [230.0, 200.0], "includesElement__vdw_radius_bondi": [202.0], "includesElement__discovery_year": [1804], "formula": ["Ir2Pb2"], "spacegroup": ["194"], "thermalConductivity": [3.13362], "icsd": ["104538"], "band_gap": [0.0], "density": [15.31414], "density_atomic": [21.65475], "deprecated": [false], "efermi": [7.547378], "energy_above_hull": [0.2462766], "energy_per_atom": [-54.07597], "formation_energy_per_atom": [0.2462766], "homogeneous_poisson": [0.327], "is_gap_direct": [false], "is_magnetic": [false], "is_metal": [true], "is_stable": [false], "nelements": [2], "nsites": [4], "num_magnetic_sites": [0], "num_unique_magnetic_sites": [0], "theoretical": [false], "total_magnetization": [3.13e-05], "total_magnetization_normalized_formula_units": [1.565e-05], "total_magnetization_normalized_vol": [3.613526e-07], "uncorrected_energy_per_atom": [-6.029264], "universal_anisotropy": [0.678], "volume": [86.61899]}