{"includesElement": ["", "Pt", "Cs"], "includesElement___series_id": [8, 3], "includesElement__abundance_crust": [0.005, 3.0], "includesElement__atomic_number": [78, 55], "includesElement__atomic_radius": [135.0, 260.0], "includesElement__atomic_radius_rahm": [230.0, 249.0], "includesElement__atomic_volume": [9.1, 70.0], "includesElement__atomic_weight": [195.084, 132.9055], "includesElement__covalent_radius_cordero": [136.0, 244.0], "includesElement__covalent_radius_pyykko": [123.0, 232.0], "includesElement__covalent_radius_pyykko_double": [112.0, 209.0], "includesElement__covalent_radius_pyykko_triple": [110.0], "includesElement__density": [21.5, 1.873], "includesElement__dipole_polarizability": [48.0, 400.9], "includesElement__dipole_polarizability_unc": [4.0, 0.7], "includesElement__discovery_year": [1735, 1860], "includesElement__electron_affinity": [2.128, 0.471626], "includesElement__electronegativity_allred-rochow": [0.0002346487, 4.087396e-05], "includesElement__electronegativity_cottrell-sutton": [0.1698876, 0.09737946], "includesElement__electronegativity_ghosh": [0.25691, 0.1542125], "includesElement__electronegativity_gordy": [0.02886179, 0.009482759], "includesElement__electronegativity_mulliken": [5.543415, 2.182766], "includesElement__electronegativity_nagle": [0.5928156, 0.1356192], "includesElement__electronegativity_pauling": [2.2, 0.79], "includesElement__electronegativity_sanderson": [1.45101, 0.1814531], "includesElement__en_ghosh": [0.25691, 0.1542125], "includesElement__en_pauling": [2.2, 0.79], "includesElement__evaporation_heat": [470.0, 68.3], "includesElement__fusion_heat": [21.76, 2.09], "includesElement__glawe_number": [64, 8], "includesElement__group_id": [10, 1], "includesElement__heat_of_formation": [565.7, 76.5], "includesElement__is_radioactive": [false], "includesElement__lattice_constant": [3.92, 6.05], "includesElement__mendeleev_number": [69, 5], "includesElement__molar_heat_capacity": [25.86, 32.21], "includesElement__period": [6], "includesElement__pettifor_number": [68, 8], "includesElement__specific_heat_capacity": [0.133, 0.242], "includesElement__vdw_radius": [213.0, 343.0], "includesElement__vdw_radius_alvarez": [229.0, 348.0], "includesElement__vdw_radius_mm3": [239.0, 344.0], "includesElement__vdw_radius_uff": [275.4, 451.7], "includesElement__atomic_weight_uncertainty": [0.009, 6e-08], "includesElement__c6_gb": [470.0, 6660.0], "includesElement__electronegativity_allen": [10.16, 3.898], "includesElement__en_allen": [10.16, 3.898], "includesElement__metallic_radius": [130.0, 235.0], "includesElement__metallic_radius_c12": [139.0, 267.0], "includesElement__thermal_conductivity": [71.6, 35.9], "includesElement__vdw_radius_batsanov": [205.0, 300.0], "includesElement__abundance_sea": [0.0003], "includesElement__covalent_radius_bragg": [237.0], "includesElement__is_monoisotopic": [true], "includesElement__vdw_radius_truhlar": [343.0], "formula": ["Cs4Pt2"], "spacegroup": ["194"], "thermalConductivity": [0.300135], "icsd": ["413241"], "band_gap": [1.6743], "density": [6.636621], "density_atomic": [38.43994], "deprecated": [false], "efermi": [1.897596], "energy_above_hull": [0.0], "energy_per_atom": [-33.96522], "formation_energy_per_atom": [-0.06984821], "homogeneous_poisson": [0.331], "is_gap_direct": [false], "is_magnetic": [false], "is_metal": [false], "is_stable": [true], "nelements": [2], "nsites": [6], "num_magnetic_sites": [0], "num_unique_magnetic_sites": [0], "theoretical": [false], "total_magnetization": [0.0], "total_magnetization_normalized_formula_units": [0.0], "total_magnetization_normalized_vol": [0.0], "uncorrected_energy_per_atom": [-33.96522], "universal_anisotropy": [2.732], "volume": [230.6396], "cbm": [3.5078], "equilibrium_reaction_energy_per_atom": [-0.06984821], "vbm": [1.8335]}