{"includesElement": ["", "Se", "Pt"], "includesElement___series_id": [1, 8], "includesElement__abundance_crust": [0.05, 0.005], "includesElement__atomic_number": [34, 78], "includesElement__atomic_radius": [115.0, 135.0], "includesElement__atomic_radius_rahm": [224.0, 230.0], "includesElement__atomic_volume": [16.5, 9.1], "includesElement__atomic_weight": [78.971, 195.084], "includesElement__covalent_radius_cordero": [120.0, 136.0], "includesElement__covalent_radius_pyykko": [116.0, 123.0], "includesElement__covalent_radius_pyykko_double": [107.0, 112.0], "includesElement__covalent_radius_pyykko_triple": [107.0, 110.0], "includesElement__density": [4.809, 21.5], "includesElement__dipole_polarizability": [28.9, 48.0], "includesElement__dipole_polarizability_unc": [1.0, 4.0], "includesElement__discovery_year": [1818, 1735], "includesElement__electron_affinity": [2.02067, 2.128], "includesElement__electronegativity_allred-rochow": [0.0005164982, 0.0002346487], "includesElement__electronegativity_cottrell-sutton": [0.2447729, 0.1698876], "includesElement__electronegativity_ghosh": [0.2240328, 0.25691], "includesElement__electronegativity_gordy": [0.05991379, 0.02886179], "includesElement__electronegativity_mulliken": [5.886531, 5.543415], "includesElement__electronegativity_nagle": [0.592131, 0.5928156], "includesElement__electronegativity_pauling": [2.55, 2.2], "includesElement__electronegativity_sanderson": [0.9659121, 1.45101], "includesElement__en_ghosh": [0.2240328, 0.25691], "includesElement__en_pauling": [2.55, 2.2], "includesElement__evaporation_heat": [59.7, 470.0], "includesElement__fusion_heat": [5.23, 21.76], "includesElement__glawe_number": [95, 64], "includesElement__group_id": [16, 10], "includesElement__heat_of_formation": [227.2, 565.7], "includesElement__is_radioactive": [false], "includesElement__lattice_constant": [4.36, 3.92], "includesElement__mendeleev_number": [101, 69], "includesElement__molar_heat_capacity": [25.363, 25.86], "includesElement__period": [4, 6], "includesElement__pettifor_number": [93, 68], "includesElement__specific_heat_capacity": [0.321, 0.133], "includesElement__vdw_radius": [190.0, 213.0], "includesElement__vdw_radius_alvarez": [182.0, 229.0], "includesElement__vdw_radius_mm3": [229.0, 239.0], "includesElement__vdw_radius_uff": [420.5, 275.4], "includesElement__abundance_sea": [0.0002], "includesElement__atomic_weight_uncertainty": [0.008, 0.009], "includesElement__c6_gb": [233.0, 470.0], "includesElement__covalent_radius_bragg": [117.0], "includesElement__electronegativity_allen": [14.34, 10.16], "includesElement__en_allen": [14.34, 10.16], "includesElement__metallic_radius": [117.0, 130.0], "includesElement__metallic_radius_c12": [140.0, 139.0], "includesElement__thermal_conductivity": [0.52, 71.6], "includesElement__vdw_radius_batsanov": [190.0, 205.0], "includesElement__c6": [210.0], "includesElement__vdw_radius_dreiding": [403.0], "includesElement__vdw_radius_bondi": [190.0], "formula": ["Pt10Se8"], "spacegroup": ["14"], "thermalConductivity": [1.33708], "icsd": ["87926"], "band_gap": [0.0], "density": [12.6693], "density_atomic": [18.80476], "deprecated": [false], "efermi": [5.63762], "energy_above_hull": [0.0], "energy_per_atom": [-35.34829], "formation_energy_per_atom": [-0.3833049], "is_gap_direct": [false], "is_magnetic": [false], "is_metal": [true], "is_stable": [true], "nelements": [2], "nsites": [18], "num_magnetic_sites": [0], "num_unique_magnetic_sites": [0], "theoretical": [false], "total_magnetization": [2e-07], "total_magnetization_normalized_formula_units": [1e-07], "total_magnetization_normalized_vol": [5.908671e-10], "uncorrected_energy_per_atom": [-35.34829], "volume": [338.4856], "equilibrium_reaction_energy_per_atom": [-0.07402744]}