{"includesElement": ["", "Be", "Th"], "includesElement___series_id": [4, 10], "includesElement__abundance_crust": [2.8, 9.6], "includesElement__atomic_number": [4, 90], "includesElement__atomic_radius": [105.0, 180.0], "includesElement__atomic_radius_rahm": [219.0, 288.0], "includesElement__atomic_volume": [5.0, 19.8], "includesElement__atomic_weight": [9.012183, 232.0377], "includesElement__covalent_radius_cordero": [96.0, 206.0], "includesElement__covalent_radius_pyykko": [102.0, 175.0], "includesElement__covalent_radius_pyykko_double": [90.0, 143.0], "includesElement__covalent_radius_pyykko_triple": [85.0, 136.0], "includesElement__density": [1.85, 11.7], "includesElement__dipole_polarizability": [37.74, 217.0], "includesElement__dipole_polarizability_unc": [0.03, 54.0], "includesElement__discovery_year": [1798, 1828], "includesElement__electron_affinity": [-2.4], "includesElement__electronegativity_allred-rochow": [0.0001874279, 0.0001028571], "includesElement__electronegativity_cottrell-sutton": [0.1382666, 0.1341641], "includesElement__electronegativity_ghosh": [0.144986, 0.10277], "includesElement__electronegativity_gordy": [0.01911765, 0.018], "includesElement__electronegativity_mulliken": [3.461349, 3.15335], "includesElement__electronegativity_nagle": [0.3756148, 0.2641598], "includesElement__electronegativity_pauling": [1.57, 1.3], "includesElement__electronegativity_sanderson": [0.1268473, 0.5557019], "includesElement__en_ghosh": [0.144986, 0.10277], "includesElement__en_pauling": [1.57, 1.3], "includesElement__evaporation_heat": [309.0, 513.7], "includesElement__fusion_heat": [12.21, 16.11], "includesElement__glawe_number": [77, 34], "includesElement__group_id": [2], "includesElement__heat_of_formation": [324.0, 602.0], "includesElement__is_radioactive": [false, true], "includesElement__lattice_constant": [2.29, 5.08], "includesElement__mendeleev_number": [75, 16], "includesElement__molar_heat_capacity": [16.443, 27.32], "includesElement__period": [2, 7], "includesElement__pettifor_number": [77, 47], "includesElement__specific_heat_capacity": [1.825, 0.118], "includesElement__vdw_radius": [153.0, 245.0], "includesElement__vdw_radius_alvarez": [198.0, 293.0], "includesElement__vdw_radius_mm3": [223.0, 274.0], "includesElement__vdw_radius_uff": [274.5, 339.6], "includesElement__abundance_sea": [5.6e-06, 1e-06], "includesElement__atomic_weight_uncertainty": [5e-07, 0.0004], "includesElement__c6_gb": [214.0], "includesElement__covalent_radius_bragg": [115.0], "includesElement__electronegativity_allen": [9.323], "includesElement__en_allen": [9.323], "includesElement__metallic_radius": [89.0], "includesElement__metallic_radius_c12": [112.0], "includesElement__thermal_conductivity": [201.0], "includesElement__vdw_radius_batsanov": [190.0, 240.0], "includesElement__c6": [227.0], "includesElement__is_monoisotopic": [true], "includesElement__vdw_radius_truhlar": [153.0], "formula": ["Be26Th2"], "spacegroup": ["226"], "thermalConductivity": [11.1723], "icsd": ["58740"], "band_gap": [0.0], "density": [4.186172], "density_atomic": [9.894042], "deprecated": [false], "efermi": [4.997147], "energy_above_hull": [0.0], "energy_per_atom": [-4.158913], "formation_energy_per_atom": [-0.1570395], "is_gap_direct": [false], "is_magnetic": [false], "is_metal": [true], "is_stable": [true], "nelements": [2], "nsites": [28], "num_magnetic_sites": [0], "num_unique_magnetic_sites": [0], "theoretical": [false], "total_magnetization": [3e-07], "total_magnetization_normalized_formula_units": [1.5e-07], "total_magnetization_normalized_vol": [1.082903e-09], "uncorrected_energy_per_atom": [-9.443361], "volume": [277.0332], "equilibrium_reaction_energy_per_atom": [-0.1570395]}