{"includesElement": ["", "Ni", "Sn", "Zr"], "includesElement___series_id": [8, 7], "includesElement__abundance_crust": [84.0, 2.3, 165.0], "includesElement__atomic_number": [28, 50, 40], "includesElement__atomic_radius": [135.0, 145.0, 155.0], "includesElement__atomic_radius_rahm": [229.0, 248.0, 269.0], "includesElement__atomic_volume": [6.6, 16.3, 14.1], "includesElement__atomic_weight": [58.6934, 118.71, 91.224], "includesElement__covalent_radius_cordero": [124.0, 139.0, 175.0], "includesElement__covalent_radius_pyykko": [110.0, 140.0, 154.0], "includesElement__covalent_radius_pyykko_double": [101.0, 130.0, 127.0], "includesElement__covalent_radius_pyykko_triple": [101.0, 132.0, 121.0], "includesElement__density": [8.9, 7.287, 6.52], "includesElement__dipole_polarizability": [49.0, 53.0, 112.0], "includesElement__dipole_polarizability_unc": [3.0, 6.0, 13.0], "includesElement__discovery_year": [1751, 1789], "includesElement__electron_affinity": [1.156, 1.112067, 0.426], "includesElement__electronegativity_allred-rochow": [0.0003347107, 0.0002882653, 0.0001328217], "includesElement__electronegativity_cottrell-sutton": [0.1918806, 0.2008909, 0.1430194], "includesElement__electronegativity_ghosh": [0.1472068, 0.178052, 0.1248887], "includesElement__electronegativity_gordy": [0.03681818, 0.04035714, 0.02045455], "includesElement__electronegativity_mulliken": [4.397939, 4.227992, 3.52995], "includesElement__electronegativity_nagle": [0.588755, 0.4225986, 0.3293169], "includesElement__electronegativity_pauling": [1.91, 1.96, 1.33], "includesElement__electronegativity_sanderson": [0.937704, 0.7622797, 0.4744467], "includesElement__en_ghosh": [0.1472068, 0.178052, 0.1248887], "includesElement__en_pauling": [1.91, 1.96, 1.33], "includesElement__evaporation_heat": [378.6, 296.0, 567.0], "includesElement__fusion_heat": [17.61, 7.07, 19.2], "includesElement__glawe_number": [69, 83, 49], "includesElement__group_id": [10, 14, 4], "includesElement__heat_of_formation": [430.1, 301.2, 610.0], "includesElement__is_radioactive": [false], "includesElement__lattice_constant": [3.52, 5.82, 3.23], "includesElement__mendeleev_number": [67, 90, 44], "includesElement__molar_heat_capacity": [26.07, 26.99, 25.36], "includesElement__period": [4, 5], "includesElement__pettifor_number": [67, 83, 49], "includesElement__specific_heat_capacity": [0.444, 0.227, 0.278], "includesElement__vdw_radius": [197.0, 217.0, 223.0], "includesElement__vdw_radius_alvarez": [240.0, 242.0, 252.0], "includesElement__vdw_radius_mm3": [222.0, 259.0, 254.0], "includesElement__vdw_radius_uff": [283.4, 439.2, 312.4], "includesElement__abundance_sea": [0.00056, 4e-06, 3e-05], "includesElement__atomic_weight_uncertainty": [0.0004, 0.007, 0.002], "includesElement__c6_gb": [393.0, 715.0, 1360.0], "includesElement__covalent_radius_bragg": [135.0, 140.0], "includesElement__electronegativity_allen": [11.13, 10.79, 7.808], "includesElement__en_allen": [11.13, 10.79, 7.808], "includesElement__metallic_radius": [115.0, 142.0, 145.0], "includesElement__metallic_radius_c12": [124.0, 163.0, 160.0], "includesElement__thermal_conductivity": [90.9, 66.8, 22.7], "includesElement__vdw_radius_batsanov": [200.0, 225.0, 230.0], "includesElement__c6": [373.0, 659.0], "includesElement__gas_basicity": [714.1], "includesElement__proton_affinity": [737.0], "includesElement__vdw_radius_dreiding": [447.0], "includesElement__vdw_radius_bondi": [217.0], "formula": ["Ni2Sn1Zr1"], "spacegroup": ["225"], "thermalConductivity": [4.99108], "icsd": ["105383"], "band_gap": [0.0], "density": [8.619195], "density_atomic": [15.76507], "deprecated": [false], "efermi": [8.11354], "energy_above_hull": [0.04881843], "energy_per_atom": [-6.526364], "formation_energy_per_atom": [-0.4969771], "homogeneous_poisson": [0.361], "is_gap_direct": [false], "is_magnetic": [false], "is_metal": [true], "is_stable": [false], "nelements": [3], "nsites": [4], "num_magnetic_sites": [0], "num_unique_magnetic_sites": [0], "theoretical": [false], "total_magnetization": [4.19e-05], "total_magnetization_normalized_formula_units": [4.19e-05], "total_magnetization_normalized_vol": [6.644435e-07], "uncorrected_energy_per_atom": [-6.526364], "universal_anisotropy": [1.346], "volume": [63.06029]}