{"includesElement": ["", "P", "Zr", "V"], "includesElement___series_id": [1, 8], "includesElement__abundance_crust": [1050.0, 165.0, 120.0], "includesElement__atomic_number": [15, 40, 23], "includesElement__atomic_radius": [100.0, 155.0, 135.0], "includesElement__atomic_radius_rahm": [223.0, 269.0, 252.0], "includesElement__atomic_volume": [17.0, 14.1, 8.35], "includesElement__atomic_weight": [30.97376, 91.224, 50.9415], "includesElement__covalent_radius_cordero": [107.0, 175.0, 153.0], "includesElement__covalent_radius_pyykko": [111.0, 154.0, 134.0], "includesElement__covalent_radius_pyykko_double": [102.0, 127.0, 112.0], "includesElement__covalent_radius_pyykko_triple": [94.0, 121.0, 106.0], "includesElement__density": [1.823, 6.52, 6.0], "includesElement__dipole_polarizability": [25.0, 112.0, 87.0], "includesElement__dipole_polarizability_unc": [1.0, 13.0, 10.0], "includesElement__discovery_year": [1669, 1789, 1830], "includesElement__electron_affinity": [0.746607, 0.426, 0.525], "includesElement__electronegativity_allred-rochow": [0.0003895788, 0.0001328217, 0.0001837826], "includesElement__electronegativity_cottrell-sutton": [0.2079501, 0.1430194, 0.1569295], "includesElement__electronegativity_ghosh": [0.206931, 0.1248887, 0.1273344], "includesElement__electronegativity_gordy": [0.04324324, 0.02045455, 0.02462687], "includesElement__electronegativity_mulliken": [5.616646, 3.52995, 3.635594], "includesElement__electronegativity_nagle": [0.5848035, 0.3293169, 0.3859078], "includesElement__electronegativity_pauling": [2.19, 1.33, 1.63], "includesElement__electronegativity_sanderson": [0.4510269, 0.4744467, 0.4388898], "includesElement__en_ghosh": [0.206931, 0.1248887, 0.1273344], "includesElement__en_pauling": [2.19, 1.33, 1.63], "includesElement__evaporation_heat": [49.8, 567.0, 460.0], "includesElement__fusion_heat": [2.51, 19.2, 17.5], "includesElement__glawe_number": [89, 49, 54], "includesElement__group_id": [15, 4, 5], "includesElement__heat_of_formation": [316.5, 610.0, 515.5], "includesElement__is_radioactive": [false], "includesElement__lattice_constant": [7.17, 3.23, 3.02], "includesElement__mendeleev_number": [94, 44, 47], "includesElement__molar_heat_capacity": [23.824, 25.36, 24.89], "includesElement__period": [3, 5, 4], "includesElement__pettifor_number": [90, 49, 54], "includesElement__specific_heat_capacity": [0.769, 0.278, 0.489], "includesElement__vdw_radius": [180.0, 223.0, 207.0], "includesElement__vdw_radius_alvarez": [190.0, 252.0, 242.0], "includesElement__vdw_radius_mm3": [222.0, 254.0, 229.0], "includesElement__vdw_radius_uff": [414.7, 312.4, 314.4], "includesElement__abundance_sea": [0.06, 3e-05, 0.0025], "includesElement__atomic_weight_uncertainty": [5e-09, 0.002, 0.0001], "includesElement__c6_gb": [187.0, 1360.0, 955.0], "includesElement__electronegativity_allen": [13.33, 7.808, 9.063], "includesElement__en_allen": [13.33, 7.808, 9.063], "includesElement__metallic_radius": [110.0, 145.0, 122.0], "includesElement__metallic_radius_c12": [128.0, 160.0, 134.0], "includesElement__vdw_radius_batsanov": [195.0, 230.0, 205.0], "includesElement__c6": [185.0, 832.0], "includesElement__is_monoisotopic": [true], "includesElement__vdw_radius_dreiding": [415.0], "includesElement__gas_basicity": [604.8, 836.8], "includesElement__proton_affinity": [626.8, 859.4], "includesElement__vdw_radius_bondi": [180.0], "includesElement__thermal_conductivity": [22.7, 30.7], "formula": ["P4V4Zr4"], "spacegroup": ["62"], "thermalConductivity": [11.1174], "icsd": ["39562"], "band_gap": [0.0], "density": [6.266139], "density_atomic": [15.29408], "deprecated": [false], "efermi": [7.330557], "energy_above_hull": [0.0], "energy_per_atom": [-8.786529], "formation_energy_per_atom": [-1.104169], "homogeneous_poisson": [0.248], "is_gap_direct": [false], "is_magnetic": [false], "is_metal": [true], "is_stable": [true], "nelements": [3], "nsites": [12], "num_magnetic_sites": [0], "num_unique_magnetic_sites": [0], "theoretical": [false], "total_magnetization": [2e-07], "total_magnetization_normalized_formula_units": [5e-08], "total_magnetization_normalized_vol": [1.089746e-09], "uncorrected_energy_per_atom": [-16.48462], "universal_anisotropy": [0.371], "volume": [183.529], "equilibrium_reaction_energy_per_atom": [-0.1171374]}