{"includesElement": ["", "Cl", "Th"], "includesElement___series_id": [6, 10], "includesElement__abundance_crust": [145.0, 9.6], "includesElement__atomic_number": [17, 90], "includesElement__atomic_radius": [100.0, 180.0], "includesElement__atomic_radius_rahm": [206.0, 288.0], "includesElement__atomic_volume": [18.7, 19.8], "includesElement__atomic_weight": [35.45, 232.0377], "includesElement__covalent_radius_cordero": [102.0, 206.0], "includesElement__covalent_radius_pyykko": [99.0, 175.0], "includesElement__covalent_radius_pyykko_double": [95.0, 143.0], "includesElement__covalent_radius_pyykko_triple": [93.0, 136.0], "includesElement__density": [0.002898, 11.7], "includesElement__dipole_polarizability": [14.6, 217.0], "includesElement__dipole_polarizability_unc": [0.1, 54.0], "includesElement__discovery_year": [1774, 1828], "includesElement__electron_affinity": [3.612725], "includesElement__electronegativity_allred-rochow": [0.0006223855, 0.0001028571], "includesElement__electronegativity_cottrell-sutton": [0.248226, 0.1341641], "includesElement__electronegativity_ghosh": [0.263803, 0.10277], "includesElement__electronegativity_gordy": [0.06161616, 0.018], "includesElement__electronegativity_mulliken": [8.290178, 3.15335], "includesElement__electronegativity_nagle": [0.7826755, 0.2641598], "includesElement__electronegativity_pauling": [3.16, 1.3], "includesElement__electronegativity_sanderson": [0.8123773, 0.5557019], "includesElement__en_ghosh": [0.263803, 0.10277], "includesElement__en_pauling": [3.16, 1.3], "includesElement__evaporation_heat": [20.41, 513.7], "includesElement__fusion_heat": [6.41, 16.11], "includesElement__glawe_number": [101, 34], "includesElement__group_id": [17], "includesElement__heat_of_formation": [121.302, 602.0], "includesElement__is_radioactive": [false, true], "includesElement__lattice_constant": [6.24, 5.08], "includesElement__mendeleev_number": [107, 16], "includesElement__molar_heat_capacity": [33.949, 27.32], "includesElement__period": [3, 7], "includesElement__pettifor_number": [99, 47], "includesElement__specific_heat_capacity": [0.479, 0.118], "includesElement__vdw_radius": [175.0, 245.0], "includesElement__vdw_radius_alvarez": [182.0, 293.0], "includesElement__vdw_radius_mm3": [207.0, 274.0], "includesElement__vdw_radius_uff": [394.7, 339.6], "includesElement__abundance_sea": [19400.0, 1e-06], "includesElement__c6_gb": [97.1], "includesElement__covalent_radius_bragg": [105.0], "includesElement__electronegativity_allen": [16.97], "includesElement__en_allen": [16.97], "includesElement__metallic_radius_c12": [91.0], "includesElement__thermal_conductivity": [0.009], "includesElement__vdw_radius_batsanov": [180.0, 240.0], "includesElement__c6": [94.6], "includesElement__vdw_radius_dreiding": [395.03], "includesElement__gas_basicity": [490.1], "includesElement__proton_affinity": [513.6], "includesElement__vdw_radius_bondi": [175.0], "includesElement__vdw_radius_rt": [176.0], "includesElement__atomic_weight_uncertainty": [0.0004], "formula": ["Cl8Th2"], "spacegroup": ["141"], "thermalConductivity": [2.41154], "icsd": ["26197"], "band_gap": [3.6672], "density": [4.484771], "density_atomic": [27.68448], "deprecated": [false], "efermi": [0.9557766], "energy_above_hull": [0.01038685], "energy_per_atom": [-22.0266], "formation_energy_per_atom": [-2.409598], "is_gap_direct": [false], "is_magnetic": [false], "is_metal": [false], "is_stable": [false], "nelements": [2], "nsites": [10], "num_magnetic_sites": [0], "num_unique_magnetic_sites": [0], "theoretical": [false], "total_magnetization": [0.0], "total_magnetization_normalized_formula_units": [0.0], "total_magnetization_normalized_vol": [0.0], "uncorrected_energy_per_atom": [-22.0266], "volume": [276.8448], "cbm": [4.566], "vbm": [0.8988]}