{"includesElement": ["", "Mn", "Rh"], "includesElement___series_id": [8], "includesElement__abundance_crust": [950.0, 0.001], "includesElement__atomic_number": [25, 45], "includesElement__atomic_radius": [140.0, 135.0], "includesElement__atomic_radius_rahm": [242.0, 233.0], "includesElement__atomic_volume": [7.39, 8.3], "includesElement__atomic_weight": [54.93804, 102.9055], "includesElement__covalent_radius_cordero": [150.0, 142.0], "includesElement__covalent_radius_pyykko": [119.0, 125.0], "includesElement__covalent_radius_pyykko_double": [105.0, 110.0], "includesElement__covalent_radius_pyykko_triple": [103.0, 106.0], "includesElement__density": [7.3, 12.4], "includesElement__dipole_polarizability": [68.0, 66.0], "includesElement__dipole_polarizability_unc": [9.0, 10.0], "includesElement__discovery_year": [1774, 1803], "includesElement__electronegativity_allred-rochow": [0.0002542193, 0.0002176], "includesElement__electronegativity_cottrell-sutton": [0.1739313, 0.1649242], "includesElement__electronegativity_ghosh": [0.1352844, 0.1408379], "includesElement__electronegativity_gordy": [0.0302521, 0.0272], "includesElement__electronegativity_mulliken": [3.717009, 4.29795], "includesElement__electronegativity_nagle": [0.4686656, 0.5147142], "includesElement__electronegativity_pauling": [1.55, 2.28], "includesElement__electronegativity_sanderson": [0.6707264, 0.9761915], "includesElement__en_ghosh": [0.1352844, 0.1408379], "includesElement__en_pauling": [1.55, 2.28], "includesElement__evaporation_heat": [221.0, 494.0], "includesElement__fusion_heat": [13.4, 21.8], "includesElement__glawe_number": [72, 63], "includesElement__group_id": [7, 9], "includesElement__heat_of_formation": [283.3, 556.0], "includesElement__is_radioactive": [false], "includesElement__lattice_constant": [8.89, 3.8], "includesElement__mendeleev_number": [55, 64], "includesElement__molar_heat_capacity": [26.32, 24.98], "includesElement__period": [4, 5], "includesElement__pettifor_number": [60, 66], "includesElement__specific_heat_capacity": [0.479, 0.243], "includesElement__vdw_radius": [205.0, 210.0], "includesElement__vdw_radius_alvarez": [245.0, 244.0], "includesElement__vdw_radius_mm3": [224.0, 234.0], "includesElement__vdw_radius_uff": [296.1, 292.9], "includesElement__abundance_sea": [0.0002], "includesElement__atomic_weight_uncertainty": [3e-06, 2e-05], "includesElement__c6_gb": [635.0, 708.0], "includesElement__covalent_radius_bragg": [147.0], "includesElement__electronegativity_allen": [10.34, 9.259], "includesElement__en_allen": [10.34, 9.259], "includesElement__metallic_radius": [118.0, 125.0], "includesElement__metallic_radius_c12": [127.0, 134.0], "includesElement__vdw_radius_batsanov": [205.0, 200.0], "includesElement__c6": [552.0], "includesElement__is_monoisotopic": [true], "includesElement__gas_basicity": [774.4, 745.4], "includesElement__proton_affinity": [797.3, 768.0], "includesElement__electron_affinity": [1.137], "includesElement__thermal_conductivity": [150.0], "formula": ["Mn1Rh1"], "spacegroup": ["221"], "thermalConductivity": [10.5712], "icsd": ["104960"], "band_gap": [0.0], "density": [9.445565], "density_atomic": [13.87452], "deprecated": [false], "efermi": [5.947351], "energy_above_hull": [0.0], "energy_per_atom": [-19.90554], "formation_energy_per_atom": [-0.4957625], "homogeneous_poisson": [0.299], "is_gap_direct": [false], "is_magnetic": [true], "is_metal": [true], "is_stable": [true], "nelements": [2], "nsites": [2], "num_magnetic_sites": [2], "num_unique_magnetic_sites": [2], "theoretical": [false], "total_magnetization": [4.188419], "total_magnetization_normalized_formula_units": [4.188419], "total_magnetization_normalized_vol": [0.1509392], "uncorrected_energy_per_atom": [-19.90554], "universal_anisotropy": [0.344], "volume": [27.74904], "equilibrium_reaction_energy_per_atom": [-0.4957625]}