{"includesElement": ["", "La", "In", "C"], "includesElement___series_id": [9, 7, 1], "includesElement__abundance_crust": [39.0, 0.25, 200.0], "includesElement__atomic_number": [57, 49, 6], "includesElement__atomic_radius": [195.0, 155.0, 70.0], "includesElement__atomic_radius_rahm": [284.0, 246.0, 190.0], "includesElement__atomic_volume": [22.5, 15.7, 5.3], "includesElement__atomic_weight": [138.9055, 114.818, 12.011], "includesElement__covalent_radius_cordero": [207.0, 142.0, 73.0], "includesElement__covalent_radius_pyykko": [180.0, 142.0, 75.0], "includesElement__covalent_radius_pyykko_double": [139.0, 136.0, 67.0], "includesElement__covalent_radius_pyykko_triple": [139.0, 146.0, 60.0], "includesElement__density": [6.15, 7.31, 2.2], "includesElement__dipole_polarizability": [215.0, 65.0, 11.3], "includesElement__dipole_polarizability_unc": [20.0, 4.0, 0.2], "includesElement__discovery_year": [1839, 1863], "includesElement__electron_affinity": [0.47, 0.3, 1.262119], "includesElement__electronegativity_allred-rochow": [9.259259e-05, 0.0002479667, 0.0005777778], "includesElement__electronegativity_cottrell-sutton": [0.1290994, 0.1876467, 0.2081666], "includesElement__electronegativity_ghosh": [0.163142, 0.16423, 0.224776], "includesElement__electronegativity_gordy": [0.01666667, 0.03521127, 0.04333333], "includesElement__electronegativity_mulliken": [3.02345, 3.043178, 6.261208], "includesElement__electronegativity_nagle": [0.240747, 0.3587038, 0.7073926], "includesElement__electronegativity_pauling": [1.1, 1.78, 2.55], "includesElement__electronegativity_sanderson": [0.3946505, 0.7172747, 0.427525], "includesElement__en_ghosh": [0.163142, 0.16423, 0.224776], "includesElement__en_pauling": [1.1, 1.78, 2.55], "includesElement__evaporation_heat": [402.0, 225.1], "includesElement__fusion_heat": [8.5, 3.24], "includesElement__glawe_number": [32, 80, 87], "includesElement__group_id": [3, 13, 14], "includesElement__heat_of_formation": [431.0, 243.0, 716.87], "includesElement__is_radioactive": [false], "includesElement__lattice_constant": [3.75, 4.59, 3.57], "includesElement__mendeleev_number": [13, 84, 87], "includesElement__molar_heat_capacity": [27.11, 26.74, 8.517], "includesElement__period": [6, 5, 2], "includesElement__pettifor_number": [33, 79, 95], "includesElement__specific_heat_capacity": [0.195, 0.233, 0.709], "includesElement__vdw_radius": [243.0, 193.0, 170.0], "includesElement__vdw_radius_alvarez": [298.0, 243.0, 177.0], "includesElement__vdw_radius_mm3": [278.0, 264.0, 204.0], "includesElement__vdw_radius_uff": [352.2, 446.3, 385.1], "includesElement__abundance_sea": [3.4e-06, 0.02, 28.0], "includesElement__atomic_weight_uncertainty": [7e-05, 0.001], "includesElement__c6_gb": [3730.0, 643.0, 47.9], "includesElement__metallic_radius": [169.0, 142.0], "includesElement__metallic_radius_c12": [187.0, 158.0, 86.0], "includesElement__thermal_conductivity": [13.4, 81.8, 1.59], "includesElement__vdw_radius_batsanov": [250.0, 220.0, 170.0], "includesElement__gas_basicity": [991.9], "includesElement__proton_affinity": [1013.0], "includesElement__electronegativity_allen": [9.793, 15.05], "includesElement__en_allen": [9.793, 15.05], "includesElement__c6": [779.0, 46.6], "includesElement__vdw_radius_dreiding": [459.0, 389.83], "includesElement__vdw_radius_bondi": [193.0, 170.0], "includesElement__covalent_radius_bragg": [77.0], "includesElement__vdw_radius_rt": [177.0], "formula": ["C1In1La3"], "spacegroup": ["221"], "thermalConductivity": [5.83217], "icsd": ["80956"], "band_gap": [0.0], "density": [6.23973], "density_atomic": [28.93003], "deprecated": [false], "efermi": [7.323054], "energy_above_hull": [0.0], "energy_per_atom": [-5.677747], "formation_energy_per_atom": [-0.3185746], "is_gap_direct": [false], "is_magnetic": [false], "is_metal": [true], "is_stable": [true], "nelements": [3], "nsites": [5], "num_magnetic_sites": [0], "num_unique_magnetic_sites": [0], "theoretical": [false], "total_magnetization": [4.3e-06], "total_magnetization_normalized_formula_units": [4.3e-06], "total_magnetization_normalized_vol": [2.97269e-08], "uncorrected_energy_per_atom": [-24.82647], "volume": [144.6502], "equilibrium_reaction_energy_per_atom": [-0.04035327]}