{"includesElement": ["", "Pd", "Ta"], "includesElement___series_id": [8], "includesElement__abundance_crust": [0.015, 2.0], "includesElement__atomic_number": [46, 73], "includesElement__atomic_radius": [140.0, 145.0], "includesElement__atomic_radius_rahm": [215.0, 258.0], "includesElement__atomic_volume": [8.9, 10.9], "includesElement__atomic_weight": [106.42, 180.9479], "includesElement__covalent_radius_cordero": [139.0, 170.0], "includesElement__covalent_radius_pyykko": [120.0, 146.0], "includesElement__covalent_radius_pyykko_double": [117.0, 126.0], "includesElement__covalent_radius_pyykko_triple": [112.0, 119.0], "includesElement__density": [12.0, 16.4], "includesElement__dipole_polarizability": [26.14, 74.0], "includesElement__dipole_polarizability_unc": [0.1, 20.0], "includesElement__discovery_year": [1803, 1802], "includesElement__electron_affinity": [0.562, 0.322], "includesElement__electronegativity_allred-rochow": [0.0004756944, 0.0001548133], "includesElement__electronegativity_cottrell-sutton": [0.2389212, 0.1503421], "includesElement__electronegativity_ghosh": [0.1440276, 0.234581], "includesElement__electronegativity_gordy": [0.05708333, 0.02260274], "includesElement__electronegativity_mulliken": [4.44943, 3.935785], "includesElement__electronegativity_nagle": [0.7259357, 0.4072985], "includesElement__electronegativity_pauling": [2.2, 1.5], "includesElement__electronegativity_sanderson": [1.124263, 0.8358832], "includesElement__en_ghosh": [0.1440276, 0.234581], "includesElement__en_pauling": [2.2, 1.5], "includesElement__evaporation_heat": [372.4, 758.0], "includesElement__fusion_heat": [17.24, 24.7], "includesElement__glawe_number": [65, 52], "includesElement__group_id": [10, 5], "includesElement__heat_of_formation": [376.6, 782.0], "includesElement__is_radioactive": [false], "includesElement__lattice_constant": [3.89, 3.31], "includesElement__mendeleev_number": [68, 49], "includesElement__molar_heat_capacity": [25.98, 25.36], "includesElement__period": [5, 6], "includesElement__pettifor_number": [69, 53], "includesElement__specific_heat_capacity": [0.246, 0.14], "includesElement__vdw_radius": [210.0, 222.0], "includesElement__vdw_radius_alvarez": [215.0, 253.0], "includesElement__vdw_radius_mm3": [237.0, 243.0], "includesElement__vdw_radius_uff": [289.9, 317.0], "includesElement__atomic_weight_uncertainty": [0.01, 2e-05], "includesElement__c6_gb": [628.0, 887.0], "includesElement__electronegativity_allen": [9.402, 7.93], "includesElement__en_allen": [9.402, 7.93], "includesElement__metallic_radius": [128.0, 134.0], "includesElement__metallic_radius_c12": [137.0, 146.0], "includesElement__thermal_conductivity": [71.8, 57.5], "includesElement__vdw_radius_batsanov": [205.0, 220.0], "includesElement__gas_basicity": [673.4], "includesElement__proton_affinity": [696.0], "includesElement__abundance_sea": [2e-06], "formula": ["Pd3Ta1"], "spacegroup": ["139"], "thermalConductivity": [7.22395], "icsd": ["105709"], "band_gap": [0.0], "density": [13.61231], "density_atomic": [15.25485], "deprecated": [false], "efermi": [6.129108], "energy_above_hull": [0.0], "energy_per_atom": [-29.84198], "formation_energy_per_atom": [-0.4736821], "homogeneous_poisson": [0.319], "is_gap_direct": [false], "is_magnetic": [false], "is_metal": [true], "is_stable": [true], "nelements": [2], "nsites": [4], "num_magnetic_sites": [0], "num_unique_magnetic_sites": [0], "theoretical": [false], "total_magnetization": [0.0], "total_magnetization_normalized_formula_units": [0.0], "total_magnetization_normalized_vol": [0.0], "uncorrected_energy_per_atom": [-29.84198], "universal_anisotropy": [0.736], "volume": [61.01939], "equilibrium_reaction_energy_per_atom": [-0.1343771]}