{"includesElement": ["", "Sn", "Ta"], "includesElement___series_id": [7, 8], "includesElement__abundance_crust": [2.3, 2.0], "includesElement__atomic_number": [50, 73], "includesElement__atomic_radius": [145.0], "includesElement__atomic_radius_rahm": [248.0, 258.0], "includesElement__atomic_volume": [16.3, 10.9], "includesElement__atomic_weight": [118.71, 180.9479], "includesElement__covalent_radius_cordero": [139.0, 170.0], "includesElement__covalent_radius_pyykko": [140.0, 146.0], "includesElement__covalent_radius_pyykko_double": [130.0, 126.0], "includesElement__covalent_radius_pyykko_triple": [132.0, 119.0], "includesElement__density": [7.287, 16.4], "includesElement__dipole_polarizability": [53.0, 74.0], "includesElement__dipole_polarizability_unc": [6.0, 20.0], "includesElement__electron_affinity": [1.112067, 0.322], "includesElement__electronegativity_allred-rochow": [0.0002882653, 0.0001548133], "includesElement__electronegativity_cottrell-sutton": [0.2008909, 0.1503421], "includesElement__electronegativity_ghosh": [0.178052, 0.234581], "includesElement__electronegativity_gordy": [0.04035714, 0.02260274], "includesElement__electronegativity_mulliken": [4.227992, 3.935785], "includesElement__electronegativity_nagle": [0.4225986, 0.4072985], "includesElement__electronegativity_pauling": [1.96, 1.5], "includesElement__electronegativity_sanderson": [0.7622797, 0.8358832], "includesElement__en_ghosh": [0.178052, 0.234581], "includesElement__en_pauling": [1.96, 1.5], "includesElement__evaporation_heat": [296.0, 758.0], "includesElement__fusion_heat": [7.07, 24.7], "includesElement__glawe_number": [83, 52], "includesElement__group_id": [14, 5], "includesElement__heat_of_formation": [301.2, 782.0], "includesElement__is_radioactive": [false], "includesElement__lattice_constant": [5.82, 3.31], "includesElement__mendeleev_number": [90, 49], "includesElement__molar_heat_capacity": [26.99, 25.36], "includesElement__period": [5, 6], "includesElement__pettifor_number": [83, 53], "includesElement__specific_heat_capacity": [0.227, 0.14], "includesElement__vdw_radius": [217.0, 222.0], "includesElement__vdw_radius_alvarez": [242.0, 253.0], "includesElement__vdw_radius_mm3": [259.0, 243.0], "includesElement__vdw_radius_uff": [439.2, 317.0], "includesElement__abundance_sea": [4e-06, 2e-06], "includesElement__atomic_weight_uncertainty": [0.007, 2e-05], "includesElement__c6_gb": [715.0, 887.0], "includesElement__covalent_radius_bragg": [140.0], "includesElement__electronegativity_allen": [10.79, 7.93], "includesElement__en_allen": [10.79, 7.93], "includesElement__metallic_radius": [142.0, 134.0], "includesElement__metallic_radius_c12": [163.0, 146.0], "includesElement__thermal_conductivity": [66.8, 57.5], "includesElement__vdw_radius_batsanov": [225.0, 220.0], "includesElement__c6": [659.0], "includesElement__vdw_radius_dreiding": [447.0], "includesElement__vdw_radius_bondi": [217.0], "includesElement__discovery_year": [1802], "formula": ["Sn2Ta6"], "spacegroup": ["223"], "thermalConductivity": [1.59843], "icsd": ["106076"], "band_gap": [0.0], "density": [14.76616], "density_atomic": [18.59887], "deprecated": [false], "efermi": [7.240988], "energy_above_hull": [0.0], "energy_per_atom": [-42.70695], "formation_energy_per_atom": [-0.07652924], "homogeneous_poisson": [0.666], "is_gap_direct": [false], "is_magnetic": [false], "is_metal": [true], "is_stable": [true], "nelements": [2], "nsites": [8], "num_magnetic_sites": [0], "num_unique_magnetic_sites": [0], "theoretical": [false], "total_magnetization": [5e-07], "total_magnetization_normalized_formula_units": [2.5e-07], "total_magnetization_normalized_vol": [3.360419e-09], "uncorrected_energy_per_atom": [-42.70695], "universal_anisotropy": [-5.107], "volume": [148.791], "equilibrium_reaction_energy_per_atom": [-0.07652924]}