{"includesElement": ["", "Cd", "Sn", "O"], "includesElement___series_id": [8, 7, 1], "includesElement__abundance_crust": [0.15, 2.3, 461000.0], "includesElement__atomic_number": [48, 50, 8], "includesElement__atomic_radius": [155.0, 145.0, 60.0], "includesElement__atomic_radius_rahm": [238.0, 248.0, 171.0], "includesElement__atomic_volume": [13.1, 16.3, 14.0], "includesElement__atomic_weight": [112.414, 118.71, 15.999], "includesElement__covalent_radius_cordero": [144.0, 139.0, 66.0], "includesElement__covalent_radius_pyykko": [136.0, 140.0, 63.0], "includesElement__covalent_radius_pyykko_double": [144.0, 130.0, 57.0], "includesElement__density": [8.69, 7.287, 0.001308], "includesElement__dipole_polarizability": [46.0, 53.0, 5.3], "includesElement__dipole_polarizability_unc": [2.0, 6.0, 0.2], "includesElement__discovery_year": [1817, 1774], "includesElement__electronegativity_allred-rochow": [0.000235186, 0.0002882653, 0.001146384], "includesElement__electronegativity_cottrell-sutton": [0.1788443, 0.2008909, 0.2687419], "includesElement__electronegativity_ghosh": [0.1504066, 0.178052, 0.304575], "includesElement__electronegativity_gordy": [0.03198529, 0.04035714, 0.07222222], "includesElement__electronegativity_mulliken": [4.496911, 4.227992, 7.539584], "includesElement__electronegativity_nagle": [0.6389612, 0.4225986, 1.042218], "includesElement__electronegativity_pauling": [1.69, 1.96, 3.44], "includesElement__electronegativity_sanderson": [0.801562, 0.7622797, 0.9416494], "includesElement__en_ghosh": [0.1504066, 0.178052, 0.304575], "includesElement__en_pauling": [1.69, 1.96, 3.44], "includesElement__evaporation_heat": [59.1, 296.0], "includesElement__fusion_heat": [6.11, 7.07], "includesElement__glawe_number": [75, 83, 97], "includesElement__group_id": [12, 14, 16], "includesElement__heat_of_formation": [111.8, 301.2, 249.229], "includesElement__is_radioactive": [false], "includesElement__lattice_constant": [2.98, 5.82, 6.83], "includesElement__mendeleev_number": [78, 90, 99], "includesElement__molar_heat_capacity": [26.02, 26.99, 29.378], "includesElement__period": [5, 2], "includesElement__pettifor_number": [75, 83, 101], "includesElement__specific_heat_capacity": [0.232, 0.227, 0.918], "includesElement__vdw_radius": [218.0, 217.0, 152.0], "includesElement__vdw_radius_alvarez": [249.0, 242.0, 150.0], "includesElement__vdw_radius_mm3": [250.0, 259.0, 182.0], "includesElement__vdw_radius_uff": [284.8, 439.2, 350.0], "includesElement__abundance_sea": [0.00011, 4e-06, 857000.0], "includesElement__atomic_weight_uncertainty": [0.004, 0.007], "includesElement__c6_gb": [405.0, 715.0, 16.7], "includesElement__covalent_radius_bragg": [160.0, 140.0, 65.0], "includesElement__electronegativity_allen": [8.995, 10.79, 21.36], "includesElement__en_allen": [8.995, 10.79, 21.36], "includesElement__metallic_radius": [138.0, 142.0], "includesElement__metallic_radius_c12": [151.0, 163.0], "includesElement__thermal_conductivity": [96.9, 66.8, 0.027], "includesElement__vdw_radius_batsanov": [220.0, 225.0, 155.0], "includesElement__covalent_radius_pyykko_triple": [132.0, 53.0], "includesElement__electron_affinity": [1.112067, 1.461113], "includesElement__c6": [659.0, 15.6], "includesElement__vdw_radius_dreiding": [447.0, 340.46], "includesElement__vdw_radius_bondi": [217.0, 152.0], "includesElement__gas_basicity": [459.6], "includesElement__proton_affinity": [485.2], "includesElement__vdw_radius_rt": [158.0], "formula": ["Cd4O8Sn2"], "spacegroup": ["55"], "thermalConductivity": [1.9816], "icsd": ["69296"], "band_gap": [0.3998], "density": [7.547741], "density_atomic": [12.80835], "deprecated": [false], "efermi": [3.061217], "energy_above_hull": [0.0], "energy_per_atom": [-14.23711], "formation_energy_per_atom": [-1.551569], "is_gap_direct": [false], "is_magnetic": [false], "is_metal": [false], "is_stable": [true], "nelements": [3], "nsites": [14], "num_magnetic_sites": [0], "num_unique_magnetic_sites": [0], "theoretical": [false], "total_magnetization": [0.0], "total_magnetization_normalized_formula_units": [0.0], "total_magnetization_normalized_vol": [0.0], "uncorrected_energy_per_atom": [-14.23711], "volume": [179.3169], "cbm": [3.3489], "e_electronic": [5.598022], "e_ionic": [9.648996], "e_total": [15.24702], "equilibrium_reaction_energy_per_atom": [-0.02849809], "n": [2.366014], "vbm": [2.9491]}