{"includesElement": ["", "Ca", "Pd", "In"], "includesElement___series_id": [4, 8, 7], "includesElement__abundance_crust": [41500.0, 0.015, 0.25], "includesElement__atomic_number": [20, 46, 49], "includesElement__atomic_radius": [180.0, 140.0, 155.0], "includesElement__atomic_radius_rahm": [270.0, 215.0, 246.0], "includesElement__atomic_volume": [29.9, 8.9, 15.7], "includesElement__atomic_weight": [40.078, 106.42, 114.818], "includesElement__covalent_radius_cordero": [176.0, 139.0, 142.0], "includesElement__covalent_radius_pyykko": [171.0, 120.0, 142.0], "includesElement__covalent_radius_pyykko_double": [147.0, 117.0, 136.0], "includesElement__covalent_radius_pyykko_triple": [133.0, 112.0, 146.0], "includesElement__density": [1.54, 12.0, 7.31], "includesElement__dipole_polarizability": [160.8, 26.14, 65.0], "includesElement__dipole_polarizability_unc": [4.0, 0.1], "includesElement__discovery_year": [1808, 1803, 1863], "includesElement__electron_affinity": [0.02455, 0.562, 0.3], "includesElement__electronegativity_allred-rochow": [9.746589e-05, 0.0004756944, 0.0002479667], "includesElement__electronegativity_cottrell-sutton": [0.1290994, 0.2389212, 0.1876467], "includesElement__electronegativity_ghosh": [0.1154119, 0.1440276, 0.16423], "includesElement__electronegativity_gordy": [0.01666667, 0.05708333, 0.03521127], "includesElement__electronegativity_mulliken": [3.068853, 4.44943, 3.043178], "includesElement__electronegativity_nagle": [0.2316939, 0.7259357, 0.3587038], "includesElement__electronegativity_pauling": [1.0, 2.2, 1.78], "includesElement__electronegativity_sanderson": [0.1901577, 1.124263, 0.7172747], "includesElement__en_ghosh": [0.1154119, 0.1440276, 0.16423], "includesElement__en_pauling": [1.0, 2.2, 1.78], "includesElement__evaporation_heat": [153.6, 372.4, 225.1], "includesElement__fusion_heat": [9.2, 17.24, 3.24], "includesElement__glawe_number": [16, 65, 80], "includesElement__group_id": [2, 10, 13], "includesElement__heat_of_formation": [177.8, 376.6, 243.0], "includesElement__is_radioactive": [false], "includesElement__lattice_constant": [5.58, 3.89, 4.59], "includesElement__mendeleev_number": [7, 68, 84], "includesElement__molar_heat_capacity": [25.929, 25.98, 26.74], "includesElement__period": [4, 5], "includesElement__pettifor_number": [16, 69, 79], "includesElement__specific_heat_capacity": [0.647, 0.246, 0.233], "includesElement__vdw_radius": [231.0, 210.0, 193.0], "includesElement__vdw_radius_alvarez": [262.0, 215.0, 243.0], "includesElement__vdw_radius_mm3": [281.0, 237.0, 264.0], "includesElement__vdw_radius_uff": [339.9, 289.9, 446.3], "includesElement__abundance_sea": [412.0, 0.02], "includesElement__atomic_weight_uncertainty": [0.004, 0.01, 0.001], "includesElement__c6_gb": [2230.0, 628.0, 643.0], "includesElement__covalent_radius_bragg": [170.0], "includesElement__electronegativity_allen": [6.113, 9.402, 9.793], "includesElement__en_allen": [6.113, 9.402, 9.793], "includesElement__metallic_radius": [174.0, 128.0, 142.0], "includesElement__metallic_radius_c12": [197.0, 137.0, 158.0], "includesElement__vdw_radius_batsanov": [240.0, 205.0, 220.0], "includesElement__c6": [2163.0, 779.0], "includesElement__vdw_radius_truhlar": [231.0], "includesElement__thermal_conductivity": [71.8, 81.8], "includesElement__gas_basicity": [673.4], "includesElement__proton_affinity": [696.0], "includesElement__vdw_radius_dreiding": [459.0], "includesElement__vdw_radius_bondi": [193.0], "formula": ["Ca2In8Pd2"], "spacegroup": ["63"], "thermalConductivity": [0.831256], "icsd": ["410890"], "band_gap": [0.0], "density": [7.063762], "density_atomic": [23.73392], "deprecated": [false], "efermi": [6.670018], "energy_above_hull": [0.008296476], "energy_per_atom": [-20.57752], "formation_energy_per_atom": [-0.5253351], "is_gap_direct": [false], "is_magnetic": [false], "is_metal": [true], "is_stable": [false], "nelements": [3], "nsites": [12], "num_magnetic_sites": [0], "num_unique_magnetic_sites": [0], "theoretical": [false], "total_magnetization": [0.0], "total_magnetization_normalized_formula_units": [0.0], "total_magnetization_normalized_vol": [0.0], "uncorrected_energy_per_atom": [-20.57752], "volume": [284.8071]}