{"includesElement": ["", "Ba", "Pb"], "includesElement___series_id": [4, 7], "includesElement__abundance_crust": [425.0, 14.0], "includesElement__atomic_number": [56, 82], "includesElement__atomic_radius": [215.0, 180.0], "includesElement__atomic_radius_rahm": [293.0, 249.0], "includesElement__atomic_volume": [39.0, 18.3], "includesElement__atomic_weight": [137.327, 207.2], "includesElement__covalent_radius_cordero": [215.0, 146.0], "includesElement__covalent_radius_pyykko": [196.0, 144.0], "includesElement__covalent_radius_pyykko_double": [161.0, 135.0], "includesElement__covalent_radius_pyykko_triple": [149.0, 137.0], "includesElement__density": [3.62, 11.3], "includesElement__dipole_polarizability": [272.0, 47.0], "includesElement__dipole_polarizability_unc": [10.0, 3.0], "includesElement__discovery_year": [1808], "includesElement__electron_affinity": [0.14462, 0.3567432], "includesElement__electronegativity_allred-rochow": [7.418784e-05, 0.000272473], "includesElement__electronegativity_cottrell-sutton": [0.1205853, 0.1980811], "includesElement__electronegativity_ghosh": [0.1586786, 0.177911], "includesElement__electronegativity_gordy": [0.01454082, 0.03923611], "includesElement__electronegativity_mulliken": [2.678142, 3.886711], "includesElement__electronegativity_nagle": [0.1944556, 0.4398663], "includesElement__electronegativity_pauling": [0.89, 1.8], "includesElement__electronegativity_sanderson": [0.3032951, 0.9313226], "includesElement__en_ghosh": [0.1586786, 0.177911], "includesElement__en_pauling": [0.89, 1.8], "includesElement__evaporation_heat": [142.0, 177.8], "includesElement__fusion_heat": [7.66, 4.77], "includesElement__glawe_number": [14, 82], "includesElement__group_id": [2, 14], "includesElement__heat_of_formation": [179.1, 195.2], "includesElement__is_radioactive": [false], "includesElement__lattice_constant": [5.02, 4.95], "includesElement__mendeleev_number": [9, 91], "includesElement__molar_heat_capacity": [28.07, 26.84], "includesElement__period": [6], "includesElement__pettifor_number": [14, 82], "includesElement__specific_heat_capacity": [0.204, 0.13], "includesElement__vdw_radius": [268.0, 202.0], "includesElement__vdw_radius_alvarez": [303.0, 260.0], "includesElement__vdw_radius_mm3": [307.0, 274.0], "includesElement__vdw_radius_uff": [370.3, 429.7], "includesElement__abundance_sea": [0.013, 3e-05], "includesElement__atomic_weight_uncertainty": [0.007, 0.1], "includesElement__c6_gb": [5540.0, 534.0], "includesElement__covalent_radius_bragg": [210.0], "includesElement__electronegativity_allen": [5.211, 10.97], "includesElement__en_allen": [5.211, 10.97], "includesElement__metallic_radius": [198.0, 150.0], "includesElement__metallic_radius_c12": [222.0, 170.0], "includesElement__vdw_radius_batsanov": [270.0, 230.0], "includesElement__vdw_radius_truhlar": [268.0], "includesElement__thermal_conductivity": [35.3], "includesElement__vdw_radius_bondi": [202.0], "formula": ["Ba6Pb10"], "spacegroup": ["63"], "thermalConductivity": [0.570515], "icsd": ["165184"], "band_gap": [0.0], "density": [7.972041], "density_atomic": [37.70096], "deprecated": [false], "efermi": [4.606375], "energy_above_hull": [0.0], "energy_per_atom": [-3.546161], "formation_energy_per_atom": [-0.5061412], "is_gap_direct": [false], "is_magnetic": [false], "is_metal": [true], "is_stable": [true], "nelements": [2], "nsites": [16], "num_magnetic_sites": [0], "num_unique_magnetic_sites": [0], "theoretical": [false], "total_magnetization": [1.6e-06], "total_magnetization_normalized_formula_units": [8e-07], "total_magnetization_normalized_vol": [2.652452e-09], "uncorrected_energy_per_atom": [-45.74794], "volume": [603.2154], "equilibrium_reaction_energy_per_atom": [-0.02574275]}