{"includesElement": ["Si", "Zr", "Pd"], "includesElement___series_id": [5, 8], "includesElement__abundance_crust": [282000.0, 165.0, 0.015], "includesElement__atomic_number": [14, 40, 46], "includesElement__atomic_radius": [110.0, 155.0, 140.0], "includesElement__atomic_radius_rahm": [232.0, 269.0, 215.0], "includesElement__atomic_volume": [12.1, 14.1, 8.9], "includesElement__atomic_weight": [28.085, 91.224, 106.42], "includesElement__covalent_radius_cordero": [111.0, 175.0, 139.0], "includesElement__covalent_radius_pyykko": [116.0, 154.0, 120.0], "includesElement__covalent_radius_pyykko_double": [107.0, 127.0, 117.0], "includesElement__covalent_radius_pyykko_triple": [102.0, 121.0, 112.0], "includesElement__density": [2.3296, 6.52, 12.0], "includesElement__dipole_polarizability": [37.3, 112.0, 26.14], "includesElement__dipole_polarizability_unc": [0.7, 13.0, 0.1], "includesElement__discovery_year": [1824, 1789, 1803], "includesElement__electron_affinity": [1.389521, 0.426, 0.562], "includesElement__electronegativity_allred-rochow": [0.0003084126, 0.0001328217, 0.0004756944], "includesElement__electronegativity_cottrell-sutton": [0.1891451, 0.1430194, 0.2389212], "includesElement__electronegativity_ghosh": [0.178503, 0.1248887, 0.1440276], "includesElement__electronegativity_gordy": [0.03577586, 0.02045455, 0.05708333], "includesElement__electronegativity_mulliken": [4.770602, 3.52995, 4.44943], "includesElement__electronegativity_nagle": [0.4750986, 0.3293169, 0.7259357], "includesElement__electronegativity_pauling": [1.9, 1.33, 2.2], "includesElement__electronegativity_sanderson": [0.3468158, 0.4744467, 1.124263], "includesElement__en_ghosh": [0.178503, 0.1248887, 0.1440276], "includesElement__en_pauling": [1.9, 1.33, 2.2], "includesElement__evaporation_heat": [383.0, 567.0, 372.4], "includesElement__fusion_heat": [50.6, 19.2, 17.24], "includesElement__glawe_number": [85, 49, 65], "includesElement__group_id": [14, 4, 10], "includesElement__heat_of_formation": [450.0, 610.0, 376.6], "includesElement__is_radioactive": [false], "includesElement__lattice_constant": [5.43, 3.23, 3.89], "includesElement__mendeleev_number": [88, 44, 68], "includesElement__molar_heat_capacity": [19.99, 25.36, 25.98], "includesElement__period": [3, 5], "includesElement__pettifor_number": [85, 49, 69], "includesElement__specific_heat_capacity": [0.712, 0.278, 0.246], "includesElement__vdw_radius": [210.0, 223.0], "includesElement__vdw_radius_alvarez": [219.0, 252.0, 215.0], "includesElement__vdw_radius_mm3": [229.0, 254.0, 237.0], "includesElement__vdw_radius_uff": [429.5, 312.4, 289.9], "includesElement__abundance_sea": [2.2, 3e-05], "includesElement__c6_gb": [308.0, 1360.0, 628.0], "includesElement__covalent_radius_bragg": [117.0], "includesElement__electronegativity_allen": [11.33, 7.808, 9.402], "includesElement__en_allen": [11.33, 7.808, 9.402], "includesElement__metallic_radius": [117.0, 145.0, 128.0], "includesElement__metallic_radius_c12": [138.0, 160.0, 137.0], "includesElement__thermal_conductivity": [149.0, 22.7, 71.8], "includesElement__vdw_radius_batsanov": [210.0, 230.0, 205.0], "includesElement__c6": [305.0], "includesElement__vdw_radius_dreiding": [427.0], "includesElement__gas_basicity": [814.1, 673.4], "includesElement__proton_affinity": [837.0, 696.0], "includesElement__vdw_radius_bondi": [210.0], "includesElement__atomic_weight_uncertainty": [0.002, 0.01], "formula": ["ZrSiPd"], "mp_id": ["961661"], "thermalConductivity": [18.35], "band_gap": [0.3147], "density": [6.559244], "density_atomic": [19.04857], "deprecated": [false], "efermi": [5.246381], "energy_above_hull": [0.2466394], "energy_per_atom": [-18.96231], "formation_energy_per_atom": [-0.8009754], "homogeneous_poisson": [0.322], "is_gap_direct": [false], "is_magnetic": [false], "is_metal": [false], "is_stable": [false], "nelements": [3], "nsites": [3], "num_magnetic_sites": [0], "num_unique_magnetic_sites": [0], "theoretical": [true], "total_magnetization": [0.0006144], "total_magnetization_normalized_formula_units": [0.0006144], "total_magnetization_normalized_vol": [1.075146e-05], "uncorrected_energy_per_atom": [-7.144226], "universal_anisotropy": [0.442], "volume": [57.14571], "cbm": [5.5583], "vbm": [5.2436]}