{"includesElement": ["", "Ba", "N", "Ce"], "includesElement___series_id": [4, 1, 9], "includesElement__abundance_crust": [425.0, 19.0, 66.5], "includesElement__atomic_number": [56, 7, 58], "includesElement__atomic_radius": [215.0, 65.0, 185.0], "includesElement__atomic_radius_rahm": [293.0, 179.0, 282.0], "includesElement__atomic_volume": [39.0, 17.3, 21.0], "includesElement__atomic_weight": [137.327, 14.007, 140.116], "includesElement__covalent_radius_cordero": [215.0, 71.0, 204.0], "includesElement__covalent_radius_pyykko": [196.0, 71.0, 163.0], "includesElement__covalent_radius_pyykko_double": [161.0, 60.0, 137.0], "includesElement__covalent_radius_pyykko_triple": [149.0, 54.0, 131.0], "includesElement__density": [3.62, 0.001145, 6.77], "includesElement__dipole_polarizability": [272.0, 7.4, 205.0], "includesElement__dipole_polarizability_unc": [10.0, 0.2, 20.0], "includesElement__discovery_year": [1808, 1772, 1803], "includesElement__electron_affinity": [0.14462, -1.4, 0.65], "includesElement__electronegativity_allred-rochow": [7.418784e-05, 0.000773656, 0.0001129135], "includesElement__electronegativity_cottrell-sutton": [0.1205853, 0.2343706, 0.1356647], "includesElement__electronegativity_ghosh": [0.1586786, 0.26493, 0.16761], "includesElement__electronegativity_gordy": [0.01454082, 0.05492958, 0.01840491], "includesElement__electronegativity_mulliken": [2.678142, 6.567065, 3.0943], "includesElement__electronegativity_nagle": [0.1944556, 0.8774979, 0.2692167], "includesElement__electronegativity_pauling": [0.89, 3.04, 1.12], "includesElement__electronegativity_sanderson": [0.3032951, 0.577482, 0.5356179], "includesElement__en_ghosh": [0.1586786, 0.26493, 0.16761], "includesElement__en_pauling": [0.89, 3.04, 1.12], "includesElement__evaporation_heat": [142.0, 398.0], "includesElement__fusion_heat": [7.66, 5.2], "includesElement__glawe_number": [14, 88, 31], "includesElement__group_id": [2, 15], "includesElement__heat_of_formation": [179.1, 472.44, 420.1], "includesElement__is_radioactive": [false], "includesElement__lattice_constant": [5.02, 4.039, 5.16], "includesElement__mendeleev_number": [9, 93, 15], "includesElement__molar_heat_capacity": [28.07, 29.124, 26.94], "includesElement__period": [6, 2], "includesElement__pettifor_number": [14, 100, 32], "includesElement__specific_heat_capacity": [0.204, 1.04, 0.192], "includesElement__vdw_radius": [268.0, 155.0, 242.0], "includesElement__vdw_radius_alvarez": [303.0, 166.0, 288.0], "includesElement__vdw_radius_mm3": [307.0, 193.0, 274.0], "includesElement__vdw_radius_uff": [370.3, 366.0, 355.6], "includesElement__abundance_sea": [0.013, 0.5, 1.2e-06], "includesElement__atomic_weight_uncertainty": [0.007, 0.001], "includesElement__c6_gb": [5540.0, 25.7, 3480.0], "includesElement__covalent_radius_bragg": [210.0, 65.0], "includesElement__electronegativity_allen": [5.211, 18.13], "includesElement__en_allen": [5.211, 18.13], "includesElement__metallic_radius": [198.0], "includesElement__metallic_radius_c12": [222.0, 53.0], "includesElement__vdw_radius_batsanov": [270.0, 160.0], "includesElement__vdw_radius_truhlar": [268.0], "includesElement__thermal_conductivity": [0.026, 11.3], "includesElement__c6": [24.2], "includesElement__vdw_radius_dreiding": [366.21], "includesElement__gas_basicity": [318.7], "includesElement__proton_affinity": [342.2], "includesElement__vdw_radius_bondi": [155.0], "includesElement__vdw_radius_rt": [164.0], "formula": ["Ba2Ce2N4"], "spacegroup": ["194"], "thermalConductivity": [5.08917], "icsd": ["74791"], "band_gap": [0.6481], "density": [6.821501], "density_atomic": [18.5891], "deprecated": [false], "efermi": [5.112523], "energy_above_hull": [0.0], "energy_per_atom": [-7.360279], "formation_energy_per_atom": [-1.227158], "homogeneous_poisson": [0.323], "is_gap_direct": [false], "is_magnetic": [false], "is_metal": [false], "is_stable": [true], "nelements": [3], "nsites": [8], "num_magnetic_sites": [0], "num_unique_magnetic_sites": [0], "theoretical": [false], "total_magnetization": [0.0], "total_magnetization_normalized_formula_units": [0.0], "total_magnetization_normalized_vol": [0.0], "uncorrected_energy_per_atom": [-20.16417], "universal_anisotropy": [0.486], "volume": [148.7128], "cbm": [5.6878], "equilibrium_reaction_energy_per_atom": [-0.06993319], "vbm": [5.0397]}