{"includesElement": ["", "Be", "N", "Si"], "includesElement___series_id": [4, 1, 5], "includesElement__abundance_crust": [2.8, 19.0, 282000.0], "includesElement__atomic_number": [4, 7, 14], "includesElement__atomic_radius": [105.0, 65.0, 110.0], "includesElement__atomic_radius_rahm": [219.0, 179.0, 232.0], "includesElement__atomic_volume": [5.0, 17.3, 12.1], "includesElement__atomic_weight": [9.012183, 14.007, 28.085], "includesElement__covalent_radius_cordero": [96.0, 71.0, 111.0], "includesElement__covalent_radius_pyykko": [102.0, 71.0, 116.0], "includesElement__covalent_radius_pyykko_double": [90.0, 60.0, 107.0], "includesElement__covalent_radius_pyykko_triple": [85.0, 54.0, 102.0], "includesElement__density": [1.85, 0.001145, 2.3296], "includesElement__dipole_polarizability": [37.74, 7.4, 37.3], "includesElement__dipole_polarizability_unc": [0.03, 0.2, 0.7], "includesElement__discovery_year": [1798, 1772, 1824], "includesElement__electron_affinity": [-2.4, -1.4, 1.389521], "includesElement__electronegativity_allred-rochow": [0.0001874279, 0.000773656, 0.0003084126], "includesElement__electronegativity_cottrell-sutton": [0.1382666, 0.2343706, 0.1891451], "includesElement__electronegativity_ghosh": [0.144986, 0.26493, 0.178503], "includesElement__electronegativity_gordy": [0.01911765, 0.05492958, 0.03577586], "includesElement__electronegativity_mulliken": [3.461349, 6.567065, 4.770602], "includesElement__electronegativity_nagle": [0.3756148, 0.8774979, 0.4750986], "includesElement__electronegativity_pauling": [1.57, 3.04, 1.9], "includesElement__electronegativity_sanderson": [0.1268473, 0.577482, 0.3468158], "includesElement__en_ghosh": [0.144986, 0.26493, 0.178503], "includesElement__en_pauling": [1.57, 3.04, 1.9], "includesElement__evaporation_heat": [309.0, 383.0], "includesElement__fusion_heat": [12.21, 50.6], "includesElement__glawe_number": [77, 88, 85], "includesElement__group_id": [2, 15, 14], "includesElement__heat_of_formation": [324.0, 472.44, 450.0], "includesElement__is_radioactive": [false], "includesElement__lattice_constant": [2.29, 4.039, 5.43], "includesElement__mendeleev_number": [75, 93, 88], "includesElement__molar_heat_capacity": [16.443, 29.124, 19.99], "includesElement__period": [2, 3], "includesElement__pettifor_number": [77, 100, 85], "includesElement__specific_heat_capacity": [1.825, 1.04, 0.712], "includesElement__vdw_radius": [153.0, 155.0, 210.0], "includesElement__vdw_radius_alvarez": [198.0, 166.0, 219.0], "includesElement__vdw_radius_mm3": [223.0, 193.0, 229.0], "includesElement__vdw_radius_uff": [274.5, 366.0, 429.5], "includesElement__abundance_sea": [5.6e-06, 0.5, 2.2], "includesElement__atomic_weight_uncertainty": [5e-07], "includesElement__c6_gb": [214.0, 25.7, 308.0], "includesElement__covalent_radius_bragg": [115.0, 65.0, 117.0], "includesElement__electronegativity_allen": [9.323, 18.13, 11.33], "includesElement__en_allen": [9.323, 18.13, 11.33], "includesElement__metallic_radius": [89.0, 117.0], "includesElement__metallic_radius_c12": [112.0, 53.0, 138.0], "includesElement__thermal_conductivity": [201.0, 0.026, 149.0], "includesElement__vdw_radius_batsanov": [190.0, 160.0, 210.0], "includesElement__c6": [227.0, 24.2, 305.0], "includesElement__is_monoisotopic": [true], "includesElement__vdw_radius_truhlar": [153.0], "includesElement__vdw_radius_dreiding": [366.21, 427.0], "includesElement__gas_basicity": [318.7, 814.1], "includesElement__proton_affinity": [342.2, 837.0], "includesElement__vdw_radius_bondi": [155.0, 210.0], "includesElement__vdw_radius_rt": [164.0], "formula": ["Be2N4Si2"], "spacegroup": ["122"], "thermalConductivity": [41.6612], "icsd": ["44112"], "band_gap": [3.5618], "density": [3.242156], "density_atomic": [8.337005], "deprecated": [false], "efermi": [5.96924], "energy_above_hull": [0.001808036], "energy_per_atom": [-7.858929], "formation_energy_per_atom": [-1.398608], "is_gap_direct": [true], "is_magnetic": [false], "is_metal": [false], "is_stable": [false], "nelements": [3], "nsites": [8], "num_magnetic_sites": [0], "num_unique_magnetic_sites": [0], "theoretical": [true], "total_magnetization": [0.0], "total_magnetization_normalized_formula_units": [0.0], "total_magnetization_normalized_vol": [0.0], "uncorrected_energy_per_atom": [-9.27482], "volume": [66.69604], "cbm": [9.3385], "e_electronic": [4.574231], "e_ionic": [3.960066], "e_total": [8.534297], "n": [2.138745], "vbm": [5.7767], "e_ij_max": [0.09193482]}