{"includesElement": ["", "Sb", "Pd", "Sr"], "includesElement___series_id": [5, 8, 4], "includesElement__abundance_crust": [0.2, 0.015, 370.0], "includesElement__atomic_number": [51, 46, 38], "includesElement__atomic_radius": [145.0, 140.0, 200.0], "includesElement__atomic_radius_rahm": [246.0, 215.0, 279.0], "includesElement__atomic_volume": [18.4, 8.9, 33.7], "includesElement__atomic_weight": [121.76, 106.42, 87.62], "includesElement__covalent_radius_cordero": [139.0, 195.0], "includesElement__covalent_radius_pyykko": [140.0, 120.0, 185.0], "includesElement__covalent_radius_pyykko_double": [133.0, 117.0, 157.0], "includesElement__covalent_radius_pyykko_triple": [127.0, 112.0, 139.0], "includesElement__density": [6.68, 12.0, 2.64], "includesElement__dipole_polarizability": [43.0, 26.14, 197.2], "includesElement__dipole_polarizability_unc": [2.0, 0.1, 0.2], "includesElement__electron_affinity": [1.046, 0.562, 0.048], "includesElement__electronegativity_allred-rochow": [0.0003214286, 0.0004756944, 8.327246e-05], "includesElement__electronegativity_cottrell-sutton": [0.212132, 0.2389212, 0.1241185], "includesElement__electronegativity_ghosh": [0.1918774, 0.1440276, 0.1185082], "includesElement__electronegativity_gordy": [0.045, 0.05708333, 0.01540541], "includesElement__electronegativity_mulliken": [4.827195, 4.44943, 2.871434], "includesElement__electronegativity_nagle": [0.4880907, 0.7259357, 0.2164584], "includesElement__electronegativity_pauling": [2.05, 2.2, 0.95], "includesElement__electronegativity_sanderson": [0.7762722, 1.124263, 0.2631786], "includesElement__en_ghosh": [0.1918774, 0.1440276, 0.1185082], "includesElement__en_pauling": [2.05, 2.2, 0.95], "includesElement__evaporation_heat": [195.2, 372.4, 144.0], "includesElement__fusion_heat": [20.08, 17.24, 9.2], "includesElement__glawe_number": [91, 65, 15], "includesElement__group_id": [15, 10, 2], "includesElement__heat_of_formation": [264.4, 376.6, 164.0], "includesElement__is_radioactive": [false], "includesElement__lattice_constant": [4.51, 3.89, 6.08], "includesElement__mendeleev_number": [96, 68, 8], "includesElement__molar_heat_capacity": [25.23, 25.98, 26.79], "includesElement__period": [5], "includesElement__pettifor_number": [88, 69, 15], "includesElement__specific_heat_capacity": [0.207, 0.246, 0.306], "includesElement__vdw_radius": [206.0, 210.0, 249.0], "includesElement__vdw_radius_alvarez": [247.0, 215.0, 284.0], "includesElement__vdw_radius_mm3": [252.0, 237.0, 300.0], "includesElement__vdw_radius_uff": [442.0, 289.9, 364.1], "includesElement__abundance_sea": [0.00024, 7.9], "includesElement__atomic_weight_uncertainty": [0.001, 0.01], "includesElement__c6_gb": [504.0, 628.0, 3230.0], "includesElement__covalent_radius_bragg": [140.0, 195.0], "includesElement__electronegativity_allen": [11.74, 9.402, 5.695], "includesElement__en_allen": [11.74, 9.402, 5.695], "includesElement__metallic_radius": [139.0, 128.0, 191.0], "includesElement__metallic_radius_c12": [166.0, 137.0, 215.0], "includesElement__thermal_conductivity": [24.43, 71.8], "includesElement__vdw_radius_batsanov": [220.0, 205.0, 255.0], "includesElement__c6": [492.0, 3175.0], "includesElement__vdw_radius_dreiding": [435.0], "includesElement__vdw_radius_truhlar": [206.0, 249.0], "includesElement__discovery_year": [1803, 1790], "includesElement__gas_basicity": [673.4], "includesElement__proton_affinity": [696.0], "formula": ["Pd4Sb4Sr2"], "spacegroup": ["129"], "thermalConductivity": [0.654346], "icsd": ["604349"], "band_gap": [0.0], "density": [7.700526], "density_atomic": [23.46074], "deprecated": [false], "efermi": [5.677051], "energy_above_hull": [0.0], "energy_per_atom": [-4.917595], "formation_energy_per_atom": [-0.8555557], "homogeneous_poisson": [0.493], "is_gap_direct": [false], "is_magnetic": [false], "is_metal": [true], "is_stable": [true], "nelements": [3], "nsites": [10], "num_magnetic_sites": [0], "num_unique_magnetic_sites": [0], "theoretical": [false], "total_magnetization": [2e-07], "total_magnetization_normalized_formula_units": [1e-07], "total_magnetization_normalized_vol": [8.524882e-10], "uncorrected_energy_per_atom": [-23.32107], "universal_anisotropy": [-11.232], "volume": [234.6074], "equilibrium_reaction_energy_per_atom": [-0.1503291]}