{"includesElement": ["", "N", "Fe", "W"], "includesElement___series_id": [1, 8], "includesElement__abundance_crust": [19.0, 56300.0, 1.25], "includesElement__atomic_number": [7, 26, 74], "includesElement__atomic_radius": [65.0, 140.0, 135.0], "includesElement__atomic_radius_rahm": [179.0, 237.0, 253.0], "includesElement__atomic_volume": [17.3, 7.1, 9.53], "includesElement__atomic_weight": [14.007, 55.845, 183.84], "includesElement__covalent_radius_cordero": [71.0, 142.0, 162.0], "includesElement__covalent_radius_pyykko": [71.0, 116.0, 137.0], "includesElement__covalent_radius_pyykko_double": [60.0, 109.0, 120.0], "includesElement__covalent_radius_pyykko_triple": [54.0, 102.0, 115.0], "includesElement__density": [0.001145, 7.87, 19.3], "includesElement__dipole_polarizability": [7.4, 62.0, 68.0], "includesElement__dipole_polarizability_unc": [0.2, 4.0, 15.0], "includesElement__discovery_year": [1772, 1783], "includesElement__electron_affinity": [-1.4, 0.151, 0.81626], "includesElement__electronegativity_allred-rochow": [0.000773656, 0.0002786861, 0.0001838137], "includesElement__electronegativity_cottrell-sutton": [0.2343706, 0.1797987, 0.1586899], "includesElement__electronegativity_ghosh": [0.26493, 0.1392532, 0.2390504], "includesElement__electronegativity_gordy": [0.05492958, 0.03232759, 0.02518248], "includesElement__electronegativity_mulliken": [6.567065, 4.026734, 4.340145], "includesElement__electronegativity_nagle": [0.8774979, 0.5053195, 0.4451921], "includesElement__electronegativity_pauling": [3.04, 1.83, 1.7], "includesElement__electronegativity_sanderson": [0.577482, 0.748727, 1.019283], "includesElement__en_ghosh": [0.26493, 0.1392532, 0.2390504], "includesElement__en_pauling": [3.04, 1.83, 1.7], "includesElement__glawe_number": [88, 71, 57], "includesElement__group_id": [15, 8, 6], "includesElement__heat_of_formation": [472.44, 415.5, 851.0], "includesElement__is_radioactive": [false], "includesElement__lattice_constant": [4.039, 2.87, 3.16], "includesElement__mendeleev_number": [93, 59, 53], "includesElement__molar_heat_capacity": [29.124, 25.1, 24.27], "includesElement__period": [2, 4, 6], "includesElement__pettifor_number": [100, 61, 56], "includesElement__specific_heat_capacity": [1.04, 0.449, 0.132], "includesElement__vdw_radius": [155.0, 204.0, 218.0], "includesElement__vdw_radius_alvarez": [166.0, 244.0, 257.0], "includesElement__vdw_radius_mm3": [193.0, 223.0, 239.0], "includesElement__vdw_radius_uff": [366.0, 291.2, 309.6], "includesElement__abundance_sea": [0.5, 0.002, 0.0001], "includesElement__c6_gb": [25.7, 548.0, 757.0], "includesElement__covalent_radius_bragg": [65.0, 140.0], "includesElement__electronegativity_allen": [18.13, 10.64, 8.67], "includesElement__en_allen": [18.13, 10.64, 8.67], "includesElement__metallic_radius_c12": [53.0, 126.0, 139.0], "includesElement__thermal_conductivity": [0.026, 80.4, 173.0], "includesElement__vdw_radius_batsanov": [160.0, 205.0, 210.0], "includesElement__c6": [24.2, 482.0], "includesElement__vdw_radius_dreiding": [366.21], "includesElement__gas_basicity": [318.7, 731.1], "includesElement__proton_affinity": [342.2, 754.0], "includesElement__vdw_radius_bondi": [155.0], "includesElement__vdw_radius_rt": [164.0], "includesElement__evaporation_heat": [340.0, 824.0], "includesElement__fusion_heat": [13.8, 35.0], "includesElement__atomic_weight_uncertainty": [0.002, 0.01], "includesElement__metallic_radius": [117.0, 130.0], "formula": ["Fe2N4W2"], "spacegroup": ["194"], "thermalConductivity": [16.2671], "icsd": ["75971"], "band_gap": [0.0], "density": [11.13071], "density_atomic": [9.984168], "deprecated": [false], "efermi": [7.429183], "energy_above_hull": [0.09480538], "energy_per_atom": [-9.913815], "formation_energy_per_atom": [-0.3876384], "homogeneous_poisson": [0.264], "is_gap_direct": [false], "is_magnetic": [true], "is_metal": [true], "is_stable": [false], "nelements": [3], "nsites": [8], "num_magnetic_sites": [4], "num_unique_magnetic_sites": [2], "theoretical": [false], "total_magnetization": [7.273201], "total_magnetization_normalized_formula_units": [3.636601], "total_magnetization_normalized_vol": [0.09105919], "uncorrected_energy_per_atom": [-9.733315], "universal_anisotropy": [1.115], "volume": [79.87334]}