{"includesElement": ["", "Si", "Ti", "Y"], "includesElement___series_id": [5, 8], "includesElement__abundance_crust": [282000.0, 5650.0, 33.0], "includesElement__atomic_number": [14, 22, 39], "includesElement__atomic_radius": [110.0, 140.0, 180.0], "includesElement__atomic_radius_rahm": [232.0, 257.0, 274.0], "includesElement__atomic_volume": [12.1, 10.6, 19.8], "includesElement__atomic_weight": [28.085, 47.867, 88.90584], "includesElement__covalent_radius_cordero": [111.0, 160.0, 190.0], "includesElement__covalent_radius_pyykko": [116.0, 136.0, 163.0], "includesElement__covalent_radius_pyykko_double": [107.0, 117.0, 130.0], "includesElement__covalent_radius_pyykko_triple": [102.0, 108.0, 124.0], "includesElement__density": [2.3296, 4.506, 4.47], "includesElement__dipole_polarizability": [37.3, 100.0, 162.0], "includesElement__dipole_polarizability_unc": [0.7, 10.0, 12.0], "includesElement__discovery_year": [1824, 1791, 1789], "includesElement__electron_affinity": [1.389521, 0.079, 0.307], "includesElement__electronegativity_allred-rochow": [0.0003084126, 0.0001703071, 0.0001129135], "includesElement__electronegativity_cottrell-sutton": [0.1891451, 0.1521899, 0.1356647], "includesElement__electronegativity_ghosh": [0.178503, 0.1233637, 0.1216986], "includesElement__electronegativity_gordy": [0.03577586, 0.02316176, 0.01840491], "includesElement__electronegativity_mulliken": [4.770602, 3.45356, 3.26213], "includesElement__electronegativity_nagle": [0.4750986, 0.3419952, 0.2645668], "includesElement__electronegativity_pauling": [1.9, 1.54, 1.22], "includesElement__electronegativity_sanderson": [0.3468158, 0.4055462, 0.3923941], "includesElement__en_ghosh": [0.178503, 0.1233637, 0.1216986], "includesElement__en_pauling": [1.9, 1.54, 1.22], "includesElement__evaporation_heat": [383.0, 422.6, 367.0], "includesElement__fusion_heat": [50.6, 18.8, 11.5], "includesElement__glawe_number": [85, 51, 21], "includesElement__group_id": [14, 4, 3], "includesElement__heat_of_formation": [450.0, 473.0, 424.7], "includesElement__is_radioactive": [false], "includesElement__lattice_constant": [5.43, 2.95, 3.65], "includesElement__mendeleev_number": [88, 43, 12], "includesElement__molar_heat_capacity": [19.99, 25.06, 26.53], "includesElement__period": [3, 4, 5], "includesElement__pettifor_number": [85, 51, 19], "includesElement__specific_heat_capacity": [0.712, 0.523, 0.298], "includesElement__vdw_radius": [210.0, 211.0, 232.0], "includesElement__vdw_radius_alvarez": [219.0, 246.0, 275.0], "includesElement__vdw_radius_mm3": [229.0, 239.0, 271.0], "includesElement__vdw_radius_uff": [429.5, 317.5, 334.5], "includesElement__abundance_sea": [2.2, 0.001, 1.3e-05], "includesElement__c6_gb": [308.0, 1200.0, 2600.0], "includesElement__covalent_radius_bragg": [117.0, 140.0], "includesElement__electronegativity_allen": [11.33, 8.17, 6.631], "includesElement__en_allen": [11.33, 8.17, 6.631], "includesElement__metallic_radius": [117.0, 132.0, 162.0], "includesElement__metallic_radius_c12": [138.0, 147.0, 180.0], "includesElement__thermal_conductivity": [149.0, 21.9], "includesElement__vdw_radius_batsanov": [210.0, 215.0, 240.0], "includesElement__c6": [305.0, 1044.0], "includesElement__vdw_radius_dreiding": [427.0], "includesElement__gas_basicity": [814.1, 853.7, 945.9], "includesElement__proton_affinity": [837.0, 876.0, 967.0], "includesElement__vdw_radius_bondi": [210.0], "includesElement__atomic_weight_uncertainty": [0.001, 2e-05], "includesElement__is_monoisotopic": [true], "formula": ["Si2Ti2Y2"], "spacegroup": ["129"], "thermalConductivity": [10.3242], "icsd": ["88113"], "band_gap": [0.0], "density": [4.41154], "density_atomic": [20.68467], "deprecated": [false], "efermi": [5.172674], "energy_above_hull": [0.0], "energy_per_atom": [-14.7454], "formation_energy_per_atom": [-0.7370282], "homogeneous_poisson": [0.273], "is_gap_direct": [false], "is_magnetic": [true], "is_metal": [true], "is_stable": [true], "nelements": [3], "nsites": [6], "num_magnetic_sites": [4], "num_unique_magnetic_sites": [2], "theoretical": [false], "total_magnetization": [2.649165], "total_magnetization_normalized_formula_units": [1.324583], "total_magnetization_normalized_vol": [0.02134564], "uncorrected_energy_per_atom": [-14.7454], "universal_anisotropy": [0.29], "volume": [124.108], "equilibrium_reaction_energy_per_atom": [-0.0371182]}