{"includesElement": ["", "O", "Sr", "Ce"], "includesElement___series_id": [1, 4, 9], "includesElement__abundance_crust": [461000.0, 370.0, 66.5], "includesElement__atomic_number": [8, 38, 58], "includesElement__atomic_radius": [60.0, 200.0, 185.0], "includesElement__atomic_radius_rahm": [171.0, 279.0, 282.0], "includesElement__atomic_volume": [14.0, 33.7, 21.0], "includesElement__atomic_weight": [15.999, 87.62, 140.116], "includesElement__covalent_radius_cordero": [66.0, 195.0, 204.0], "includesElement__covalent_radius_pyykko": [63.0, 185.0, 163.0], "includesElement__covalent_radius_pyykko_double": [57.0, 157.0, 137.0], "includesElement__covalent_radius_pyykko_triple": [53.0, 139.0, 131.0], "includesElement__density": [0.001308, 2.64, 6.77], "includesElement__dipole_polarizability": [5.3, 197.2, 205.0], "includesElement__dipole_polarizability_unc": [0.2, 20.0], "includesElement__discovery_year": [1774, 1790, 1803], "includesElement__electron_affinity": [1.461113, 0.048, 0.65], "includesElement__electronegativity_allred-rochow": [0.001146384, 8.327246e-05, 0.0001129135], "includesElement__electronegativity_cottrell-sutton": [0.2687419, 0.1241185, 0.1356647], "includesElement__electronegativity_ghosh": [0.304575, 0.1185082, 0.16761], "includesElement__electronegativity_gordy": [0.07222222, 0.01540541, 0.01840491], "includesElement__electronegativity_mulliken": [7.539584, 2.871434, 3.0943], "includesElement__electronegativity_nagle": [1.042218, 0.2164584, 0.2692167], "includesElement__electronegativity_pauling": [3.44, 0.95, 1.12], "includesElement__electronegativity_sanderson": [0.9416494, 0.2631786, 0.5356179], "includesElement__en_ghosh": [0.304575, 0.1185082, 0.16761], "includesElement__en_pauling": [3.44, 0.95, 1.12], "includesElement__glawe_number": [97, 15, 31], "includesElement__group_id": [16, 2], "includesElement__heat_of_formation": [249.229, 164.0, 420.1], "includesElement__is_radioactive": [false], "includesElement__lattice_constant": [6.83, 6.08, 5.16], "includesElement__mendeleev_number": [99, 8, 15], "includesElement__molar_heat_capacity": [29.378, 26.79, 26.94], "includesElement__period": [2, 5, 6], "includesElement__pettifor_number": [101, 15, 32], "includesElement__specific_heat_capacity": [0.918, 0.306, 0.192], "includesElement__vdw_radius": [152.0, 249.0, 242.0], "includesElement__vdw_radius_alvarez": [150.0, 284.0, 288.0], "includesElement__vdw_radius_mm3": [182.0, 300.0, 274.0], "includesElement__vdw_radius_uff": [350.0, 364.1, 355.6], "includesElement__abundance_sea": [857000.0, 7.9, 1.2e-06], "includesElement__c6_gb": [16.7, 3230.0, 3480.0], "includesElement__covalent_radius_bragg": [65.0, 195.0], "includesElement__electronegativity_allen": [21.36, 5.695], "includesElement__en_allen": [21.36, 5.695], "includesElement__thermal_conductivity": [0.027, 11.3], "includesElement__vdw_radius_batsanov": [155.0, 255.0], "includesElement__c6": [15.6, 3175.0], "includesElement__vdw_radius_dreiding": [340.46], "includesElement__gas_basicity": [459.6], "includesElement__proton_affinity": [485.2], "includesElement__vdw_radius_bondi": [152.0], "includesElement__vdw_radius_rt": [158.0], "includesElement__evaporation_heat": [144.0, 398.0], "includesElement__fusion_heat": [9.2, 5.2], "includesElement__atomic_weight_uncertainty": [0.01, 0.001], "includesElement__metallic_radius": [191.0], "includesElement__metallic_radius_c12": [215.0], "includesElement__vdw_radius_truhlar": [249.0], "formula": ["Ce4O12Sr4"], "spacegroup": ["62"], "thermalConductivity": [3.31914], "icsd": ["154927"], "band_gap": [2.1521], "density": [5.743441], "density_atomic": [15.94401], "deprecated": [false], "efermi": [2.755133], "energy_above_hull": [0.01817629], "energy_per_atom": [-16.23226], "formation_energy_per_atom": [-3.458612], "is_gap_direct": [false], "is_magnetic": [false], "is_metal": [false], "is_stable": [false], "nelements": [3], "nsites": [20], "num_magnetic_sites": [0], "num_unique_magnetic_sites": [0], "theoretical": [false], "total_magnetization": [0.0], "total_magnetization_normalized_formula_units": [0.0], "total_magnetization_normalized_vol": [0.0], "uncorrected_energy_per_atom": [-16.23226], "volume": [318.8802], "cbm": [4.9629], "vbm": [2.8108]}