{"includesElement": ["", "Mg", "O", "Nb"], "includesElement___series_id": [4, 1, 8], "includesElement__abundance_crust": [23300.0, 461000.0, 20.0], "includesElement__atomic_number": [12, 8, 41], "includesElement__atomic_radius": [150.0, 60.0, 145.0], "includesElement__atomic_radius_rahm": [240.0, 171.0, 251.0], "includesElement__atomic_volume": [14.0, 10.8], "includesElement__atomic_weight": [24.305, 15.999, 92.90637], "includesElement__covalent_radius_cordero": [141.0, 66.0, 164.0], "includesElement__covalent_radius_pyykko": [139.0, 63.0, 147.0], "includesElement__covalent_radius_pyykko_double": [132.0, 57.0, 125.0], "includesElement__covalent_radius_pyykko_triple": [127.0, 53.0, 116.0], "includesElement__density": [1.74, 0.001308, 8.57], "includesElement__dipole_polarizability": [71.2, 5.3, 98.0], "includesElement__dipole_polarizability_unc": [0.4, 0.2, 8.0], "includesElement__discovery_year": [1808, 1774, 1801], "includesElement__electronegativity_allred-rochow": [0.0001475079, 0.001146384, 0.0001295756], "includesElement__electronegativity_cottrell-sutton": [0.1431908, 0.2687419, 0.1380131], "includesElement__electronegativity_ghosh": [0.121644, 0.304575, 0.1280782], "includesElement__electronegativity_gordy": [0.0205036, 0.07222222, 0.01904762], "includesElement__electronegativity_mulliken": [3.823117, 7.539584, 3.838128], "includesElement__electronegativity_nagle": [0.3039835, 1.042218, 0.3708924], "includesElement__electronegativity_pauling": [1.31, 3.44, 1.6], "includesElement__electronegativity_sanderson": [0.1524211, 0.9416494, 0.5561695], "includesElement__en_ghosh": [0.121644, 0.304575, 0.1280782], "includesElement__en_pauling": [1.31, 3.44, 1.6], "includesElement__evaporation_heat": [131.8, 680.0], "includesElement__fusion_heat": [9.2, 26.8], "includesElement__glawe_number": [73, 97, 53], "includesElement__group_id": [2, 16, 5], "includesElement__heat_of_formation": [147.1, 249.229, 733.0], "includesElement__is_radioactive": [false], "includesElement__lattice_constant": [3.21, 6.83, 3.3], "includesElement__mendeleev_number": [76, 99, 48], "includesElement__molar_heat_capacity": [24.869, 29.378, 24.6], "includesElement__period": [3, 2, 5], "includesElement__pettifor_number": [73, 101, 52], "includesElement__specific_heat_capacity": [1.023, 0.918, 0.265], "includesElement__vdw_radius": [173.0, 152.0, 218.0], "includesElement__vdw_radius_alvarez": [251.0, 150.0, 256.0], "includesElement__vdw_radius_mm3": [243.0, 182.0], "includesElement__vdw_radius_uff": [302.1, 350.0, 316.5], "includesElement__abundance_sea": [1290.0, 857000.0, 1e-05], "includesElement__c6_gb": [629.0, 16.7, 1140.0], "includesElement__covalent_radius_bragg": [142.0, 65.0], "includesElement__electronegativity_allen": [7.646, 21.36, 8.34], "includesElement__en_allen": [7.646, 21.36, 8.34], "includesElement__metallic_radius": [136.0, 134.0], "includesElement__metallic_radius_c12": [160.0, 146.0], "includesElement__thermal_conductivity": [156.0, 0.027, 53.7], "includesElement__vdw_radius_batsanov": [220.0, 155.0, 215.0], "includesElement__c6": [626.0, 15.6], "includesElement__gas_basicity": [797.3, 459.6], "includesElement__proton_affinity": [819.6, 485.2], "includesElement__vdw_radius_bondi": [173.0, 152.0], "includesElement__electron_affinity": [1.461113, 0.917406], "includesElement__vdw_radius_dreiding": [340.46], "includesElement__vdw_radius_rt": [158.0], "includesElement__atomic_weight_uncertainty": [2e-05], "includesElement__is_monoisotopic": [true], "formula": ["Mg3Nb6O11"], "spacegroup": ["164"], "thermalConductivity": [6.82779], "icsd": ["62662"], "band_gap": [0.2437], "density": [5.561551], "density_atomic": [12.03774], "deprecated": [false], "efermi": [5.085924], "energy_above_hull": [0.0], "energy_per_atom": [-8.75807], "formation_energy_per_atom": [-2.759363], "is_gap_direct": [false], "is_magnetic": [false], "is_metal": [false], "is_stable": [true], "nelements": [3], "nsites": [20], "num_magnetic_sites": [0], "num_unique_magnetic_sites": [0], "theoretical": [false], "total_magnetization": [0.0], "total_magnetization_normalized_formula_units": [0.0], "total_magnetization_normalized_vol": [0.0], "uncorrected_energy_per_atom": [-13.94483], "volume": [240.7548], "cbm": [5.2937], "equilibrium_reaction_energy_per_atom": [-0.0469425], "vbm": [5.05]}