{"includesElement": ["", "Ba", "Sn", "Pd"], "includesElement___series_id": [4, 7, 8], "includesElement__abundance_crust": [425.0, 2.3, 0.015], "includesElement__atomic_number": [56, 50, 46], "includesElement__atomic_radius": [215.0, 145.0, 140.0], "includesElement__atomic_radius_rahm": [293.0, 248.0, 215.0], "includesElement__atomic_volume": [39.0, 16.3, 8.9], "includesElement__atomic_weight": [137.327, 118.71, 106.42], "includesElement__covalent_radius_cordero": [215.0, 139.0], "includesElement__covalent_radius_pyykko": [196.0, 140.0, 120.0], "includesElement__covalent_radius_pyykko_double": [161.0, 130.0, 117.0], "includesElement__covalent_radius_pyykko_triple": [149.0, 132.0, 112.0], "includesElement__density": [3.62, 7.287, 12.0], "includesElement__dipole_polarizability": [272.0, 53.0, 26.14], "includesElement__dipole_polarizability_unc": [10.0, 6.0, 0.1], "includesElement__discovery_year": [1808, 1803], "includesElement__electron_affinity": [0.14462, 1.112067, 0.562], "includesElement__electronegativity_allred-rochow": [7.418784e-05, 0.0002882653, 0.0004756944], "includesElement__electronegativity_cottrell-sutton": [0.1205853, 0.2008909, 0.2389212], "includesElement__electronegativity_ghosh": [0.1586786, 0.178052, 0.1440276], "includesElement__electronegativity_gordy": [0.01454082, 0.04035714, 0.05708333], "includesElement__electronegativity_mulliken": [2.678142, 4.227992, 4.44943], "includesElement__electronegativity_nagle": [0.1944556, 0.4225986, 0.7259357], "includesElement__electronegativity_pauling": [0.89, 1.96, 2.2], "includesElement__electronegativity_sanderson": [0.3032951, 0.7622797, 1.124263], "includesElement__en_ghosh": [0.1586786, 0.178052, 0.1440276], "includesElement__en_pauling": [0.89, 1.96, 2.2], "includesElement__evaporation_heat": [142.0, 296.0, 372.4], "includesElement__fusion_heat": [7.66, 7.07, 17.24], "includesElement__glawe_number": [14, 83, 65], "includesElement__group_id": [2, 14, 10], "includesElement__heat_of_formation": [179.1, 301.2, 376.6], "includesElement__is_radioactive": [false], "includesElement__lattice_constant": [5.02, 5.82, 3.89], "includesElement__mendeleev_number": [9, 90, 68], "includesElement__molar_heat_capacity": [28.07, 26.99, 25.98], "includesElement__period": [6, 5], "includesElement__pettifor_number": [14, 83, 69], "includesElement__specific_heat_capacity": [0.204, 0.227, 0.246], "includesElement__vdw_radius": [268.0, 217.0, 210.0], "includesElement__vdw_radius_alvarez": [303.0, 242.0, 215.0], "includesElement__vdw_radius_mm3": [307.0, 259.0, 237.0], "includesElement__vdw_radius_uff": [370.3, 439.2, 289.9], "includesElement__abundance_sea": [0.013, 4e-06], "includesElement__atomic_weight_uncertainty": [0.007, 0.01], "includesElement__c6_gb": [5540.0, 715.0, 628.0], "includesElement__covalent_radius_bragg": [210.0, 140.0], "includesElement__electronegativity_allen": [5.211, 10.79, 9.402], "includesElement__en_allen": [5.211, 10.79, 9.402], "includesElement__metallic_radius": [198.0, 142.0, 128.0], "includesElement__metallic_radius_c12": [222.0, 163.0, 137.0], "includesElement__vdw_radius_batsanov": [270.0, 225.0, 205.0], "includesElement__vdw_radius_truhlar": [268.0], "includesElement__thermal_conductivity": [66.8, 71.8], "includesElement__c6": [659.0], "includesElement__vdw_radius_dreiding": [447.0], "includesElement__vdw_radius_bondi": [217.0], "includesElement__gas_basicity": [673.4], "includesElement__proton_affinity": [696.0], "formula": ["Ba1Pd1Sn3"], "spacegroup": ["107"], "thermalConductivity": [1.40064], "icsd": ["58673"], "band_gap": [0.0], "density": [7.253141], "density_atomic": [27.46725], "deprecated": [false], "efermi": [6.241046], "energy_above_hull": [0.0], "energy_per_atom": [-4.472409], "formation_energy_per_atom": [-0.6468948], "homogeneous_poisson": [0.314], "is_gap_direct": [false], "is_magnetic": [false], "is_metal": [true], "is_stable": [true], "nelements": [3], "nsites": [5], "num_magnetic_sites": [0], "num_unique_magnetic_sites": [0], "theoretical": [false], "total_magnetization": [0.0], "total_magnetization_normalized_formula_units": [0.0], "total_magnetization_normalized_vol": [0.0], "uncorrected_energy_per_atom": [-25.3861], "universal_anisotropy": [0.068], "volume": [137.3363], "equilibrium_reaction_energy_per_atom": [-0.08358799]}