{"includesElement": ["", "Fe", "Co", "In"], "includesElement___series_id": [8, 7], "includesElement__abundance_crust": [56300.0, 25.0, 0.25], "includesElement__atomic_number": [26, 27, 49], "includesElement__atomic_radius": [140.0, 135.0, 155.0], "includesElement__atomic_radius_rahm": [237.0, 233.0, 246.0], "includesElement__atomic_volume": [7.1, 6.7, 15.7], "includesElement__atomic_weight": [55.845, 58.93319, 114.818], "includesElement__covalent_radius_cordero": [142.0, 138.0], "includesElement__covalent_radius_pyykko": [116.0, 111.0, 142.0], "includesElement__covalent_radius_pyykko_double": [109.0, 103.0, 136.0], "includesElement__covalent_radius_pyykko_triple": [102.0, 96.0, 146.0], "includesElement__density": [7.87, 8.86, 7.31], "includesElement__dipole_polarizability": [62.0, 55.0, 65.0], "includesElement__dipole_polarizability_unc": [4.0], "includesElement__electron_affinity": [0.151, 0.6622565, 0.3], "includesElement__electronegativity_allred-rochow": [0.0002786861, 0.0003165327, 0.0002479667], "includesElement__electronegativity_cottrell-sutton": [0.1797987, 0.1874437, 0.1876467], "includesElement__electronegativity_ghosh": [0.1392532, 0.1432363, 0.16423], "includesElement__electronegativity_gordy": [0.03232759, 0.03513514, 0.03521127], "includesElement__electronegativity_mulliken": [4.026734, 4.271633, 3.043178], "includesElement__electronegativity_nagle": [0.5053195, 0.5469655, 0.3587038], "includesElement__electronegativity_pauling": [1.83, 1.88, 1.78], "includesElement__electronegativity_sanderson": [0.748727, 0.8832424, 0.7172747], "includesElement__en_ghosh": [0.1392532, 0.1432363, 0.16423], "includesElement__en_pauling": [1.83, 1.88, 1.78], "includesElement__evaporation_heat": [340.0, 389.1, 225.1], "includesElement__fusion_heat": [13.8, 15.48, 3.24], "includesElement__glawe_number": [71, 70, 80], "includesElement__group_id": [8, 9, 13], "includesElement__heat_of_formation": [415.5, 426.7, 243.0], "includesElement__is_radioactive": [false], "includesElement__lattice_constant": [2.87, 2.51, 4.59], "includesElement__mendeleev_number": [59, 63, 84], "includesElement__molar_heat_capacity": [25.1, 24.81, 26.74], "includesElement__period": [4, 5], "includesElement__pettifor_number": [61, 64, 79], "includesElement__specific_heat_capacity": [0.449, 0.421, 0.233], "includesElement__vdw_radius": [204.0, 200.0, 193.0], "includesElement__vdw_radius_alvarez": [244.0, 240.0, 243.0], "includesElement__vdw_radius_mm3": [223.0, 264.0], "includesElement__vdw_radius_uff": [291.2, 287.2, 446.3], "includesElement__abundance_sea": [0.002, 2e-05, 0.02], "includesElement__atomic_weight_uncertainty": [0.002, 4e-06, 0.001], "includesElement__c6_gb": [548.0, 461.0, 643.0], "includesElement__covalent_radius_bragg": [140.0, 137.0], "includesElement__electronegativity_allen": [10.64, 10.86, 9.793], "includesElement__en_allen": [10.64, 10.86, 9.793], "includesElement__metallic_radius": [117.0, 116.0, 142.0], "includesElement__metallic_radius_c12": [126.0, 125.0, 158.0], "includesElement__thermal_conductivity": [80.4, 100.0, 81.8], "includesElement__vdw_radius_batsanov": [205.0, 200.0, 220.0], "includesElement__c6": [482.0, 408.0, 779.0], "includesElement__gas_basicity": [731.1, 719.8], "includesElement__proton_affinity": [754.0, 742.7], "includesElement__discovery_year": [1739, 1863], "includesElement__is_monoisotopic": [true], "includesElement__vdw_radius_dreiding": [459.0], "includesElement__vdw_radius_bondi": [193.0], "formula": ["Co2Fe1In1"], "spacegroup": ["225"], "thermalConductivity": [9.14975], "icsd": ["102392"], "band_gap": [0.0], "density": [8.933955], "density_atomic": [13.40712], "deprecated": [false], "efermi": [7.263757], "energy_above_hull": [0.1072034], "energy_per_atom": [-6.294923], "formation_energy_per_atom": [0.07908387], "homogeneous_poisson": [0.324], "is_gap_direct": [false], "is_magnetic": [true], "is_metal": [true], "is_stable": [false], "nelements": [3], "nsites": [4], "num_magnetic_sites": [3], "num_unique_magnetic_sites": [2], "theoretical": [false], "total_magnetization": [5.029497], "total_magnetization_normalized_formula_units": [5.029497], "total_magnetization_normalized_vol": [0.09378409], "uncorrected_energy_per_atom": [-6.294923], "universal_anisotropy": [1.09], "volume": [53.62847]}