{"includesElement": ["", "Sn", "Ir"], "includesElement___series_id": [7, 8], "includesElement__abundance_crust": [2.3, 0.001], "includesElement__atomic_number": [50, 77], "includesElement__atomic_radius": [145.0, 135.0], "includesElement__atomic_radius_rahm": [248.0, 240.0], "includesElement__atomic_volume": [16.3, 8.54], "includesElement__atomic_weight": [118.71, 192.217], "includesElement__covalent_radius_cordero": [139.0, 141.0], "includesElement__covalent_radius_pyykko": [140.0, 122.0], "includesElement__covalent_radius_pyykko_double": [130.0, 115.0], "includesElement__covalent_radius_pyykko_triple": [132.0, 107.0], "includesElement__density": [7.287, 22.5622], "includesElement__dipole_polarizability": [53.0, 54.0], "includesElement__dipole_polarizability_unc": [6.0, 7.0], "includesElement__electron_affinity": [1.112067, 1.5638], "includesElement__electronegativity_allred-rochow": [0.0002882653, 0.0002620263], "includesElement__electronegativity_cottrell-sutton": [0.2008909, 0.1787938], "includesElement__electronegativity_ghosh": [0.178052, 0.25106], "includesElement__electronegativity_gordy": [0.04035714, 0.03196721], "includesElement__electronegativity_mulliken": [4.227992, 5.26541], "includesElement__electronegativity_nagle": [0.4225986, 0.5503212], "includesElement__electronegativity_pauling": [1.96, 2.2], "includesElement__electronegativity_sanderson": [0.7622797, 1.475998], "includesElement__en_ghosh": [0.178052, 0.25106], "includesElement__en_pauling": [1.96, 2.2], "includesElement__evaporation_heat": [296.0, 604.0], "includesElement__fusion_heat": [7.07, 27.61], "includesElement__glawe_number": [83, 62], "includesElement__group_id": [14, 9], "includesElement__heat_of_formation": [301.2, 669.0], "includesElement__is_radioactive": [false], "includesElement__lattice_constant": [5.82, 3.84], "includesElement__mendeleev_number": [90, 65], "includesElement__molar_heat_capacity": [26.99, 25.1], "includesElement__period": [5, 6], "includesElement__pettifor_number": [83, 65], "includesElement__specific_heat_capacity": [0.227, 0.131], "includesElement__vdw_radius": [217.0, 213.0], "includesElement__vdw_radius_alvarez": [242.0, 241.0], "includesElement__vdw_radius_mm3": [259.0, 236.0], "includesElement__vdw_radius_uff": [439.2, 284.0], "includesElement__abundance_sea": [4e-06], "includesElement__atomic_weight_uncertainty": [0.007, 0.003], "includesElement__c6_gb": [715.0, 522.0], "includesElement__covalent_radius_bragg": [140.0], "includesElement__electronegativity_allen": [10.79, 9.96], "includesElement__en_allen": [10.79, 9.96], "includesElement__metallic_radius": [142.0, 127.0], "includesElement__metallic_radius_c12": [163.0, 136.0], "includesElement__thermal_conductivity": [66.8, 147.0], "includesElement__vdw_radius_batsanov": [225.0, 200.0], "includesElement__c6": [659.0], "includesElement__vdw_radius_dreiding": [447.0], "includesElement__vdw_radius_bondi": [217.0], "includesElement__discovery_year": [1804], "formula": ["Ir2Sn2"], "spacegroup": ["194"], "thermalConductivity": [4.63619], "icsd": ["104561"], "band_gap": [0.0], "density": [13.24548], "density_atomic": [19.48991], "deprecated": [false], "efermi": [8.339024], "energy_above_hull": [0.0], "energy_per_atom": [-38.8275], "formation_energy_per_atom": [-0.2747335], "homogeneous_poisson": [0.332], "is_gap_direct": [false], "is_magnetic": [false], "is_metal": [true], "is_stable": [true], "nelements": [2], "nsites": [4], "num_magnetic_sites": [0], "num_unique_magnetic_sites": [0], "theoretical": [false], "total_magnetization": [3e-07], "total_magnetization_normalized_formula_units": [1.5e-07], "total_magnetization_normalized_vol": [3.848144e-09], "uncorrected_energy_per_atom": [-38.8275], "universal_anisotropy": [1.321], "volume": [77.95965], "equilibrium_reaction_energy_per_atom": [-0.04163196]}