{"includesElement": ["", "Al", "Nb", "Co"], "includesElement___series_id": [7, 8], "includesElement__abundance_crust": [82300.0, 20.0, 25.0], "includesElement__atomic_number": [13, 41, 27], "includesElement__atomic_radius": [125.0, 145.0, 135.0], "includesElement__atomic_radius_rahm": [239.0, 251.0, 233.0], "includesElement__atomic_volume": [10.0, 10.8, 6.7], "includesElement__atomic_weight": [26.98154, 92.90637, 58.93319], "includesElement__covalent_radius_cordero": [121.0, 164.0, 138.0], "includesElement__covalent_radius_pyykko": [126.0, 147.0, 111.0], "includesElement__covalent_radius_pyykko_double": [113.0, 125.0, 103.0], "includesElement__covalent_radius_pyykko_triple": [111.0, 116.0, 96.0], "includesElement__density": [2.7, 8.57, 8.86], "includesElement__dipole_polarizability": [57.8, 98.0, 55.0], "includesElement__dipole_polarizability_unc": [1.0, 8.0, 4.0], "includesElement__discovery_year": [1825, 1801, 1739], "includesElement__electron_affinity": [0.43283, 0.917406, 0.6622565], "includesElement__electronegativity_allred-rochow": [0.0002204586, 0.0001295756, 0.0003165327], "includesElement__electronegativity_cottrell-sutton": [0.1666667, 0.1380131, 0.1874437], "includesElement__electronegativity_ghosh": [0.150078, 0.1280782, 0.1432363], "includesElement__electronegativity_gordy": [0.02777778, 0.01904762, 0.03513514], "includesElement__electronegativity_mulliken": [3.209299, 3.838128, 4.271633], "includesElement__electronegativity_nagle": [0.3730192, 0.3708924, 0.5469655], "includesElement__electronegativity_pauling": [1.61, 1.6, 1.88], "includesElement__electronegativity_sanderson": [0.2360927, 0.5561695, 0.8832424], "includesElement__en_ghosh": [0.150078, 0.1280782, 0.1432363], "includesElement__en_pauling": [1.61, 1.6, 1.88], "includesElement__evaporation_heat": [284.1, 680.0, 389.1], "includesElement__fusion_heat": [10.75, 26.8, 15.48], "includesElement__glawe_number": [78, 53, 70], "includesElement__group_id": [13, 5, 9], "includesElement__heat_of_formation": [330.9, 733.0, 426.7], "includesElement__is_radioactive": [false], "includesElement__lattice_constant": [4.05, 3.3, 2.51], "includesElement__mendeleev_number": [82, 48, 63], "includesElement__molar_heat_capacity": [24.2, 24.6, 24.81], "includesElement__period": [3, 5, 4], "includesElement__pettifor_number": [80, 52, 64], "includesElement__specific_heat_capacity": [0.897, 0.265, 0.421], "includesElement__vdw_radius": [184.0, 218.0, 200.0], "includesElement__vdw_radius_alvarez": [225.0, 256.0, 240.0], "includesElement__vdw_radius_mm3": [236.0, 243.0, 223.0], "includesElement__vdw_radius_uff": [449.9, 316.5, 287.2], "includesElement__abundance_sea": [0.002, 1e-05, 2e-05], "includesElement__atomic_weight_uncertainty": [7e-07, 2e-05, 4e-06], "includesElement__c6_gb": [520.0, 1140.0, 461.0], "includesElement__covalent_radius_bragg": [135.0, 137.0], "includesElement__electronegativity_allen": [9.539, 8.34, 10.86], "includesElement__en_allen": [9.539, 8.34, 10.86], "includesElement__metallic_radius": [125.0, 134.0, 116.0], "includesElement__metallic_radius_c12": [143.0, 146.0, 125.0], "includesElement__thermal_conductivity": [237.0, 53.7, 100.0], "includesElement__vdw_radius_batsanov": [210.0, 215.0, 200.0], "includesElement__c6": [528.0, 408.0], "includesElement__is_monoisotopic": [true], "includesElement__vdw_radius_dreiding": [439.0], "includesElement__vdw_radius_truhlar": [184.0], "includesElement__gas_basicity": [719.8], "includesElement__proton_affinity": [742.7], "formula": ["Al1Co2Nb1"], "spacegroup": ["225"], "thermalConductivity": [23.0936], "icsd": ["57620"], "band_gap": [0.0], "density": [7.505055], "density_atomic": [13.15115], "deprecated": [false], "efermi": [6.661276], "energy_above_hull": [0.0], "energy_per_atom": [-7.444689], "formation_energy_per_atom": [-0.4162606], "homogeneous_poisson": [0.292], "is_gap_direct": [false], "is_magnetic": [true], "is_metal": [true], "is_stable": [true], "nelements": [3], "nsites": [4], "num_magnetic_sites": [2], "num_unique_magnetic_sites": [1], "theoretical": [false], "total_magnetization": [2.000078], "total_magnetization_normalized_formula_units": [2.000078], "total_magnetization_normalized_vol": [0.03802097], "uncorrected_energy_per_atom": [-14.93422], "universal_anisotropy": [0.339], "volume": [52.60459], "equilibrium_reaction_energy_per_atom": [-0.03755819]}