{"includesElement": ["", "Be", "Ag"], "includesElement___series_id": [4, 8], "includesElement__abundance_crust": [2.8, 0.075], "includesElement__atomic_number": [4, 47], "includesElement__atomic_radius": [105.0, 160.0], "includesElement__atomic_radius_rahm": [219.0, 225.0], "includesElement__atomic_volume": [5.0, 10.3], "includesElement__atomic_weight": [9.012183, 107.8682], "includesElement__covalent_radius_cordero": [96.0, 145.0], "includesElement__covalent_radius_pyykko": [102.0, 128.0], "includesElement__covalent_radius_pyykko_double": [90.0, 139.0], "includesElement__covalent_radius_pyykko_triple": [85.0, 137.0], "includesElement__density": [1.85, 10.5], "includesElement__dipole_polarizability": [37.74, 55.0], "includesElement__dipole_polarizability_unc": [0.03, 8.0], "includesElement__discovery_year": [1798], "includesElement__electron_affinity": [-2.4, 1.302], "includesElement__electronegativity_allred-rochow": [0.0001874279, 0.0002258301], "includesElement__electronegativity_cottrell-sutton": [0.1382666, 0.1700184], "includesElement__electronegativity_ghosh": [0.144986, 0.1472165], "includesElement__electronegativity_gordy": [0.01911765, 0.02890625], "includesElement__electronegativity_mulliken": [3.461349, 4.439117], "includesElement__electronegativity_nagle": [0.3756148, 0.5848035], "includesElement__electronegativity_pauling": [1.57, 1.93], "includesElement__electronegativity_sanderson": [0.1268473, 0.9437955], "includesElement__en_ghosh": [0.144986, 0.1472165], "includesElement__en_pauling": [1.57, 1.93], "includesElement__evaporation_heat": [309.0, 254.1], "includesElement__fusion_heat": [12.21, 11.95], "includesElement__glawe_number": [77, 67], "includesElement__group_id": [2, 11], "includesElement__heat_of_formation": [324.0, 284.9], "includesElement__is_radioactive": [false], "includesElement__lattice_constant": [2.29, 4.09], "includesElement__mendeleev_number": [75, 72], "includesElement__molar_heat_capacity": [16.443, 25.35], "includesElement__period": [2, 5], "includesElement__pettifor_number": [77, 71], "includesElement__specific_heat_capacity": [1.825, 0.235], "includesElement__vdw_radius": [153.0, 211.0], "includesElement__vdw_radius_alvarez": [198.0, 253.0], "includesElement__vdw_radius_mm3": [223.0, 243.0], "includesElement__vdw_radius_uff": [274.5, 314.8], "includesElement__abundance_sea": [5.6e-06, 4e-05], "includesElement__atomic_weight_uncertainty": [5e-07, 0.0002], "includesElement__c6_gb": [214.0, 341.0], "includesElement__covalent_radius_bragg": [115.0, 177.0], "includesElement__electronegativity_allen": [9.323, 11.05], "includesElement__en_allen": [9.323, 11.05], "includesElement__metallic_radius": [89.0, 134.0], "includesElement__metallic_radius_c12": [112.0, 144.0], "includesElement__thermal_conductivity": [201.0, 429.0], "includesElement__vdw_radius_batsanov": [190.0, 210.0], "includesElement__c6": [227.0], "includesElement__is_monoisotopic": [true], "includesElement__vdw_radius_truhlar": [153.0], "formula": ["Ag2Be4"], "spacegroup": ["227"], "thermalConductivity": [9.18372], "icsd": ["57347"], "band_gap": [0.0], "density": [6.400869], "density_atomic": [10.88652], "deprecated": [false], "efermi": [4.695575], "energy_above_hull": [0.0297206], "energy_per_atom": [-3.410867], "formation_energy_per_atom": [0.0297206], "homogeneous_poisson": [0.225], "is_gap_direct": [false], "is_magnetic": [false], "is_metal": [true], "is_stable": [false], "nelements": [2], "nsites": [6], "num_magnetic_sites": [0], "num_unique_magnetic_sites": [0], "theoretical": [false], "total_magnetization": [0.0], "total_magnetization_normalized_formula_units": [0.0], "total_magnetization_normalized_vol": [0.0], "uncorrected_energy_per_atom": [-9.98819], "universal_anisotropy": [0.004], "volume": [65.3191]}