{"includesElement": ["", "Zr", "In"], "includesElement___series_id": [8, 7], "includesElement__abundance_crust": [165.0, 0.25], "includesElement__atomic_number": [40, 49], "includesElement__atomic_radius": [155.0], "includesElement__atomic_radius_rahm": [269.0, 246.0], "includesElement__atomic_volume": [14.1, 15.7], "includesElement__atomic_weight": [91.224, 114.818], "includesElement__covalent_radius_cordero": [175.0, 142.0], "includesElement__covalent_radius_pyykko": [154.0, 142.0], "includesElement__covalent_radius_pyykko_double": [127.0, 136.0], "includesElement__covalent_radius_pyykko_triple": [121.0, 146.0], "includesElement__density": [6.52, 7.31], "includesElement__dipole_polarizability": [112.0, 65.0], "includesElement__dipole_polarizability_unc": [13.0, 4.0], "includesElement__discovery_year": [1789, 1863], "includesElement__electron_affinity": [0.426, 0.3], "includesElement__electronegativity_allred-rochow": [0.0001328217, 0.0002479667], "includesElement__electronegativity_cottrell-sutton": [0.1430194, 0.1876467], "includesElement__electronegativity_ghosh": [0.1248887, 0.16423], "includesElement__electronegativity_gordy": [0.02045455, 0.03521127], "includesElement__electronegativity_mulliken": [3.52995, 3.043178], "includesElement__electronegativity_nagle": [0.3293169, 0.3587038], "includesElement__electronegativity_pauling": [1.33, 1.78], "includesElement__electronegativity_sanderson": [0.4744467, 0.7172747], "includesElement__en_ghosh": [0.1248887, 0.16423], "includesElement__en_pauling": [1.33, 1.78], "includesElement__evaporation_heat": [567.0, 225.1], "includesElement__fusion_heat": [19.2, 3.24], "includesElement__glawe_number": [49, 80], "includesElement__group_id": [4, 13], "includesElement__heat_of_formation": [610.0, 243.0], "includesElement__is_radioactive": [false], "includesElement__lattice_constant": [3.23, 4.59], "includesElement__mendeleev_number": [44, 84], "includesElement__molar_heat_capacity": [25.36, 26.74], "includesElement__period": [5], "includesElement__pettifor_number": [49, 79], "includesElement__specific_heat_capacity": [0.278, 0.233], "includesElement__vdw_radius": [223.0, 193.0], "includesElement__vdw_radius_alvarez": [252.0, 243.0], "includesElement__vdw_radius_mm3": [254.0, 264.0], "includesElement__vdw_radius_uff": [312.4, 446.3], "includesElement__abundance_sea": [3e-05, 0.02], "includesElement__atomic_weight_uncertainty": [0.002, 0.001], "includesElement__c6_gb": [1360.0, 643.0], "includesElement__electronegativity_allen": [7.808, 9.793], "includesElement__en_allen": [7.808, 9.793], "includesElement__metallic_radius": [145.0, 142.0], "includesElement__metallic_radius_c12": [160.0, 158.0], "includesElement__thermal_conductivity": [22.7, 81.8], "includesElement__vdw_radius_batsanov": [230.0, 220.0], "includesElement__c6": [779.0], "includesElement__vdw_radius_dreiding": [459.0], "includesElement__vdw_radius_bondi": [193.0], "formula": ["In1Zr3"], "spacegroup": ["221"], "thermalConductivity": [10.3661], "icsd": ["59577"], "band_gap": [0.0], "density": [7.23771], "density_atomic": [22.2827], "deprecated": [false], "efermi": [5.831305], "energy_above_hull": [0.0], "energy_per_atom": [-23.01123], "formation_energy_per_atom": [-0.3042345], "homogeneous_poisson": [0.275], "is_gap_direct": [false], "is_magnetic": [false], "is_metal": [true], "is_stable": [true], "nelements": [2], "nsites": [4], "num_magnetic_sites": [0], "num_unique_magnetic_sites": [0], "theoretical": [false], "total_magnetization": [8.7e-06], "total_magnetization_normalized_formula_units": [8.7e-06], "total_magnetization_normalized_vol": [9.760936e-08], "uncorrected_energy_per_atom": [-23.01123], "universal_anisotropy": [0.743], "volume": [89.13079], "equilibrium_reaction_energy_per_atom": [-0.08465801]}