{"includesElement": ["", "Ba", "N", "Cr"], "includesElement___series_id": [4, 1, 8], "includesElement__abundance_crust": [425.0, 19.0, 102.0], "includesElement__atomic_number": [56, 7, 24], "includesElement__atomic_radius": [215.0, 65.0, 140.0], "includesElement__atomic_radius_rahm": [293.0, 179.0, 233.0], "includesElement__atomic_volume": [39.0, 17.3, 7.23], "includesElement__atomic_weight": [137.327, 14.007, 51.9961], "includesElement__covalent_radius_cordero": [215.0, 71.0, 139.0], "includesElement__covalent_radius_pyykko": [196.0, 71.0, 122.0], "includesElement__covalent_radius_pyykko_double": [161.0, 60.0, 111.0], "includesElement__covalent_radius_pyykko_triple": [149.0, 54.0, 103.0], "includesElement__density": [3.62, 0.001145, 7.15], "includesElement__dipole_polarizability": [272.0, 7.4, 83.0], "includesElement__dipole_polarizability_unc": [10.0, 0.2, 12.0], "includesElement__discovery_year": [1808, 1772, 1797], "includesElement__electron_affinity": [0.14462, -1.4, 0.666], "includesElement__electronegativity_allred-rochow": [7.418784e-05, 0.000773656, 0.0001981994], "includesElement__electronegativity_cottrell-sutton": [0.1205853, 0.2343706, 0.1555003], "includesElement__electronegativity_ghosh": [0.1586786, 0.26493, 0.1313053], "includesElement__electronegativity_gordy": [0.01454082, 0.05492958, 0.02418033], "includesElement__electronegativity_mulliken": [2.678142, 6.567065, 3.716255], "includesElement__electronegativity_nagle": [0.1944556, 0.8774979, 0.4165729], "includesElement__electronegativity_pauling": [0.89, 3.04, 1.66], "includesElement__electronegativity_sanderson": [0.3032951, 0.577482, 0.6017723], "includesElement__en_ghosh": [0.1586786, 0.26493, 0.1313053], "includesElement__en_pauling": [0.89, 3.04, 1.66], "includesElement__evaporation_heat": [142.0, 342.0], "includesElement__fusion_heat": [7.66, 21.0], "includesElement__glawe_number": [14, 88, 55], "includesElement__group_id": [2, 15, 6], "includesElement__heat_of_formation": [179.1, 472.44, 397.48], "includesElement__is_radioactive": [false], "includesElement__lattice_constant": [5.02, 4.039, 2.88], "includesElement__mendeleev_number": [9, 93, 51], "includesElement__molar_heat_capacity": [28.07, 29.124, 23.35], "includesElement__period": [6, 2, 4], "includesElement__pettifor_number": [14, 100, 57], "includesElement__specific_heat_capacity": [0.204, 1.04, 0.449], "includesElement__vdw_radius": [268.0, 155.0, 206.0], "includesElement__vdw_radius_alvarez": [303.0, 166.0, 245.0], "includesElement__vdw_radius_mm3": [307.0, 193.0, 225.0], "includesElement__vdw_radius_uff": [370.3, 366.0, 302.3], "includesElement__abundance_sea": [0.013, 0.5, 0.0003], "includesElement__atomic_weight_uncertainty": [0.007, 0.0006], "includesElement__c6_gb": [5540.0, 25.7, 709.0], "includesElement__covalent_radius_bragg": [210.0, 65.0, 140.0], "includesElement__electronegativity_allen": [5.211, 18.13, 9.77], "includesElement__en_allen": [5.211, 18.13, 9.77], "includesElement__metallic_radius": [198.0, 119.0], "includesElement__metallic_radius_c12": [222.0, 53.0, 128.0], "includesElement__vdw_radius_batsanov": [270.0, 160.0, 205.0], "includesElement__vdw_radius_truhlar": [268.0], "includesElement__thermal_conductivity": [0.026, 93.9], "includesElement__c6": [24.2, 602.0], "includesElement__vdw_radius_dreiding": [366.21], "includesElement__gas_basicity": [318.7, 768.4], "includesElement__proton_affinity": [342.2, 791.3], "includesElement__vdw_radius_bondi": [155.0], "includesElement__vdw_radius_rt": [164.0], "formula": ["Ba6Cr2N6"], "spacegroup": ["176"], "thermalConductivity": [3.24918], "icsd": ["154802"], "band_gap": [0.0], "density": [5.077528], "density_atomic": [23.63997], "deprecated": [false], "efermi": [3.408375], "energy_above_hull": [0.0], "energy_per_atom": [-6.683359], "formation_energy_per_atom": [-0.9083864], "is_gap_direct": [false], "is_magnetic": [false], "is_metal": [true], "is_stable": [true], "nelements": [3], "nsites": [14], "num_magnetic_sites": [0], "num_unique_magnetic_sites": [0], "theoretical": [false], "total_magnetization": [2.7e-06], "total_magnetization_normalized_formula_units": [1.35e-06], "total_magnetization_normalized_vol": [8.158098e-09], "uncorrected_energy_per_atom": [-18.31174], "volume": [330.9595], "e_electronic": [11.97252], "e_ionic": [7.26757], "e_total": [19.2401], "equilibrium_reaction_energy_per_atom": [-0.0644437], "n": [3.460134]}