{"includesElement": ["", "Pb", "Pu"], "includesElement___series_id": [7, 10], "includesElement__abundance_crust": [14.0], "includesElement__atomic_number": [82, 94], "includesElement__atomic_radius": [180.0, 175.0], "includesElement__atomic_radius_rahm": [249.0, 278.0], "includesElement__atomic_volume": [18.3], "includesElement__atomic_weight": [207.2, 244.0], "includesElement__covalent_radius_cordero": [146.0, 187.0], "includesElement__covalent_radius_pyykko": [144.0, 172.0], "includesElement__covalent_radius_pyykko_double": [135.0], "includesElement__covalent_radius_pyykko_triple": [137.0], "includesElement__density": [11.3, 19.7], "includesElement__dipole_polarizability": [47.0, 132.0], "includesElement__dipole_polarizability_unc": [3.0, 20.0], "includesElement__electron_affinity": [0.3567432], "includesElement__electronegativity_allred-rochow": [0.000272473, 9.633586e-05], "includesElement__electronegativity_cottrell-sutton": [0.1980811, 0.1287236], "includesElement__electronegativity_ghosh": [0.177911, 0.16137], "includesElement__electronegativity_gordy": [0.03923611, 0.01656977], "includesElement__electronegativity_mulliken": [3.886711, 3.0129], "includesElement__electronegativity_nagle": [0.4398663, 0.3928005], "includesElement__electronegativity_pauling": [1.8, 1.3], "includesElement__electronegativity_sanderson": [0.9313226, 0.6084717], "includesElement__en_ghosh": [0.177911, 0.16137], "includesElement__en_pauling": [1.8, 1.3], "includesElement__evaporation_heat": [177.8, 343.5], "includesElement__fusion_heat": [4.77, 2.8], "includesElement__glawe_number": [82, 38], "includesElement__group_id": [14], "includesElement__heat_of_formation": [195.2, 345.0], "includesElement__is_radioactive": [false, true], "includesElement__lattice_constant": [4.95], "includesElement__mendeleev_number": [91, 24], "includesElement__molar_heat_capacity": [26.84], "includesElement__period": [6, 7], "includesElement__pettifor_number": [82, 43], "includesElement__specific_heat_capacity": [0.13], "includesElement__vdw_radius": [202.0, 243.0], "includesElement__vdw_radius_alvarez": [260.0, 281.0], "includesElement__vdw_radius_mm3": [274.0, 252.0], "includesElement__vdw_radius_uff": [429.7, 342.4], "includesElement__abundance_sea": [3e-05], "includesElement__atomic_weight_uncertainty": [0.1], "includesElement__c6_gb": [534.0], "includesElement__electronegativity_allen": [10.97], "includesElement__en_allen": [10.97], "includesElement__metallic_radius": [150.0], "includesElement__metallic_radius_c12": [170.0], "includesElement__thermal_conductivity": [35.3], "includesElement__vdw_radius_batsanov": [230.0], "includesElement__vdw_radius_bondi": [202.0], "includesElement__discovery_year": [1940], "formula": ["Pb1Pu3"], "spacegroup": ["221"], "thermalConductivity": [2.12734], "icsd": ["105605"], "band_gap": [0.0], "density": [14.15394], "density_atomic": [27.54671], "deprecated": [false], "efermi": [10.62957], "energy_above_hull": [0.248095], "energy_per_atom": [-11.75112], "formation_energy_per_atom": [0.2304899], "is_gap_direct": [false], "is_magnetic": [true], "is_metal": [true], "is_stable": [false], "nelements": [2], "nsites": [4], "num_magnetic_sites": [4], "num_unique_magnetic_sites": [2], "theoretical": [false], "total_magnetization": [17.79347], "total_magnetization_normalized_formula_units": [17.79347], "total_magnetization_normalized_vol": [0.1614845], "uncorrected_energy_per_atom": [-79.38254], "volume": [110.1868]}