{"includesElement": ["", "Mg", "Al", "Mn"], "includesElement___series_id": [4, 7, 8], "includesElement__abundance_crust": [23300.0, 82300.0, 950.0], "includesElement__atomic_number": [12, 13, 25], "includesElement__atomic_radius": [150.0, 125.0, 140.0], "includesElement__atomic_radius_rahm": [240.0, 239.0, 242.0], "includesElement__atomic_volume": [14.0, 10.0, 7.39], "includesElement__atomic_weight": [24.305, 26.98154, 54.93804], "includesElement__covalent_radius_cordero": [141.0, 121.0, 150.0], "includesElement__covalent_radius_pyykko": [139.0, 126.0, 119.0], "includesElement__covalent_radius_pyykko_double": [132.0, 113.0, 105.0], "includesElement__covalent_radius_pyykko_triple": [127.0, 111.0, 103.0], "includesElement__density": [1.74, 2.7, 7.3], "includesElement__dipole_polarizability": [71.2, 57.8, 68.0], "includesElement__dipole_polarizability_unc": [0.4, 1.0, 9.0], "includesElement__discovery_year": [1808, 1825, 1774], "includesElement__electronegativity_allred-rochow": [0.0001475079, 0.0002204586, 0.0002542193], "includesElement__electronegativity_cottrell-sutton": [0.1431908, 0.1666667, 0.1739313], "includesElement__electronegativity_ghosh": [0.121644, 0.150078, 0.1352844], "includesElement__electronegativity_gordy": [0.0205036, 0.02777778, 0.0302521], "includesElement__electronegativity_mulliken": [3.823117, 3.209299, 3.717009], "includesElement__electronegativity_nagle": [0.3039835, 0.3730192, 0.4686656], "includesElement__electronegativity_pauling": [1.31, 1.61, 1.55], "includesElement__electronegativity_sanderson": [0.1524211, 0.2360927, 0.6707264], "includesElement__en_ghosh": [0.121644, 0.150078, 0.1352844], "includesElement__en_pauling": [1.31, 1.61, 1.55], "includesElement__evaporation_heat": [131.8, 284.1, 221.0], "includesElement__fusion_heat": [9.2, 10.75, 13.4], "includesElement__glawe_number": [73, 78, 72], "includesElement__group_id": [2, 13, 7], "includesElement__heat_of_formation": [147.1, 330.9, 283.3], "includesElement__is_radioactive": [false], "includesElement__lattice_constant": [3.21, 4.05, 8.89], "includesElement__mendeleev_number": [76, 82, 55], "includesElement__molar_heat_capacity": [24.869, 24.2, 26.32], "includesElement__period": [3, 4], "includesElement__pettifor_number": [73, 80, 60], "includesElement__specific_heat_capacity": [1.023, 0.897, 0.479], "includesElement__vdw_radius": [173.0, 184.0, 205.0], "includesElement__vdw_radius_alvarez": [251.0, 225.0, 245.0], "includesElement__vdw_radius_mm3": [243.0, 236.0, 224.0], "includesElement__vdw_radius_uff": [302.1, 449.9, 296.1], "includesElement__abundance_sea": [1290.0, 0.002, 0.0002], "includesElement__c6_gb": [629.0, 520.0, 635.0], "includesElement__covalent_radius_bragg": [142.0, 135.0, 147.0], "includesElement__electronegativity_allen": [7.646, 9.539, 10.34], "includesElement__en_allen": [7.646, 9.539, 10.34], "includesElement__metallic_radius": [136.0, 125.0, 118.0], "includesElement__metallic_radius_c12": [160.0, 143.0, 127.0], "includesElement__thermal_conductivity": [156.0, 237.0], "includesElement__vdw_radius_batsanov": [220.0, 210.0, 205.0], "includesElement__c6": [626.0, 528.0, 552.0], "includesElement__gas_basicity": [797.3, 774.4], "includesElement__proton_affinity": [819.6, 797.3], "includesElement__vdw_radius_bondi": [173.0], "includesElement__electron_affinity": [0.43283], "includesElement__atomic_weight_uncertainty": [7e-07, 3e-06], "includesElement__is_monoisotopic": [true], "includesElement__vdw_radius_dreiding": [439.0], "includesElement__vdw_radius_truhlar": [184.0], "formula": ["Al36Mg6Mn4"], "spacegroup": ["227"], "thermalConductivity": [0.845425], "icsd": ["107845"], "band_gap": [0.0], "density": [2.962261], "density_atomic": [16.29193], "deprecated": [false], "efermi": [7.479183], "energy_above_hull": [0.01044842], "energy_per_atom": [-4.040621], "formation_energy_per_atom": [-0.09993408], "is_gap_direct": [false], "is_magnetic": [true], "is_metal": [true], "is_stable": [false], "nelements": [3], "nsites": [46], "num_magnetic_sites": [4], "num_unique_magnetic_sites": [1], "theoretical": [false], "total_magnetization": [2.044692], "total_magnetization_normalized_formula_units": [1.022346], "total_magnetization_normalized_vol": [0.002728334], "uncorrected_energy_per_atom": [-4.040621], "volume": [749.4289]}