{"includesElement": ["", "Sn", "Pt", "U"], "includesElement___series_id": [7, 8, 10], "includesElement__abundance_crust": [2.3, 0.005, 2.7], "includesElement__atomic_number": [50, 78, 92], "includesElement__atomic_radius": [145.0, 135.0, 175.0], "includesElement__atomic_radius_rahm": [248.0, 230.0, 283.0], "includesElement__atomic_volume": [16.3, 9.1, 12.5], "includesElement__atomic_weight": [118.71, 195.084, 238.0289], "includesElement__covalent_radius_cordero": [139.0, 136.0, 196.0], "includesElement__covalent_radius_pyykko": [140.0, 123.0, 170.0], "includesElement__covalent_radius_pyykko_double": [130.0, 112.0, 134.0], "includesElement__covalent_radius_pyykko_triple": [132.0, 110.0, 118.0], "includesElement__density": [7.287, 21.5, 19.1], "includesElement__dipole_polarizability": [53.0, 48.0, 129.0], "includesElement__dipole_polarizability_unc": [6.0, 4.0, 17.0], "includesElement__electron_affinity": [1.112067, 2.128], "includesElement__electronegativity_allred-rochow": [0.0002882653, 0.0002346487, 0.0001038062], "includesElement__electronegativity_cottrell-sutton": [0.2008909, 0.1698876, 0.1328422], "includesElement__electronegativity_ghosh": [0.178052, 0.25691, 0.13207], "includesElement__electronegativity_gordy": [0.04035714, 0.02886179, 0.01764706], "includesElement__electronegativity_mulliken": [4.227992, 5.543415, 3.097025], "includesElement__electronegativity_nagle": [0.4225986, 0.5928156, 0.3596283], "includesElement__electronegativity_pauling": [1.96, 2.2, 1.7], "includesElement__electronegativity_sanderson": [0.7622797, 1.45101, 0.618118], "includesElement__en_ghosh": [0.178052, 0.25691, 0.13207], "includesElement__en_pauling": [1.96, 2.2, 1.7], "includesElement__evaporation_heat": [296.0, 470.0, 417.0], "includesElement__fusion_heat": [7.07, 21.76, 12.6], "includesElement__glawe_number": [83, 64, 36], "includesElement__group_id": [14, 10], "includesElement__heat_of_formation": [301.2, 565.7, 533.0], "includesElement__is_radioactive": [false, true], "includesElement__lattice_constant": [5.82, 3.92, 2.85], "includesElement__mendeleev_number": [90, 69, 20], "includesElement__molar_heat_capacity": [26.99, 25.86, 27.665], "includesElement__period": [5, 6, 7], "includesElement__pettifor_number": [83, 68, 45], "includesElement__specific_heat_capacity": [0.227, 0.133, 0.116], "includesElement__vdw_radius": [217.0, 213.0, 241.0], "includesElement__vdw_radius_alvarez": [242.0, 229.0, 271.0], "includesElement__vdw_radius_mm3": [259.0, 239.0, 252.0], "includesElement__vdw_radius_uff": [439.2, 275.4, 339.5], "includesElement__abundance_sea": [4e-06, 0.0032], "includesElement__atomic_weight_uncertainty": [0.007, 0.009, 3e-05], "includesElement__c6_gb": [715.0, 470.0], "includesElement__covalent_radius_bragg": [140.0], "includesElement__electronegativity_allen": [10.79, 10.16], "includesElement__en_allen": [10.79, 10.16], "includesElement__metallic_radius": [142.0, 130.0], "includesElement__metallic_radius_c12": [163.0, 139.0], "includesElement__thermal_conductivity": [66.8, 71.6, 27.5], "includesElement__vdw_radius_batsanov": [225.0, 205.0, 230.0], "includesElement__c6": [659.0], "includesElement__vdw_radius_dreiding": [447.0], "includesElement__vdw_radius_bondi": [217.0], "includesElement__discovery_year": [1735, 1789], "includesElement__gas_basicity": [973.2], "includesElement__proton_affinity": [995.2], "formula": ["Pt1Sn1U1", "USnPt"], "mp_id": ["30848"], "spacegroup": ["216"], "thermalConductivity": [1.04703, 5.41], "icsd": ["105800"], "band_gap": [0.0], "density": [12.39623], "density_atomic": [24.63984], "deprecated": [false], "efermi": [8.591976], "energy_above_hull": [0.009649763], "energy_per_atom": [-7.623802], "formation_energy_per_atom": [-0.4997632], "homogeneous_poisson": [0.336], "is_gap_direct": [false], "is_magnetic": [true], "is_metal": [true], "is_stable": [false], "nelements": [3], "nsites": [3], "num_magnetic_sites": [1], "num_unique_magnetic_sites": [1], "theoretical": [false], "total_magnetization": [2.010905], "total_magnetization_normalized_formula_units": [2.010905], "total_magnetization_normalized_vol": [0.02720399], "uncorrected_energy_per_atom": [-52.77343], "universal_anisotropy": [0.223], "volume": [73.91951]}