{"includesElement": ["", "Li", "Se", "In"], "includesElement___series_id": [3, 1, 7], "includesElement__abundance_crust": [20.0, 0.05, 0.25], "includesElement__atomic_number": [3, 34, 49], "includesElement__atomic_radius": [145.0, 115.0, 155.0], "includesElement__atomic_radius_rahm": [220.0, 224.0, 246.0], "includesElement__atomic_volume": [13.1, 16.5, 15.7], "includesElement__atomic_weight": [6.94, 78.971, 114.818], "includesElement__covalent_radius_cordero": [128.0, 120.0, 142.0], "includesElement__covalent_radius_pyykko": [133.0, 116.0, 142.0], "includesElement__covalent_radius_pyykko_double": [124.0, 107.0, 136.0], "includesElement__density": [0.534, 4.809, 7.31], "includesElement__dipole_polarizability": [164.1125, 28.9, 65.0], "includesElement__dipole_polarizability_unc": [0.0005, 1.0, 4.0], "includesElement__discovery_year": [1817, 1818, 1863], "includesElement__electron_affinity": [0.618049, 2.02067, 0.3], "includesElement__electronegativity_allred-rochow": [7.3492e-05, 0.0005164982, 0.0002479667], "includesElement__electronegativity_cottrell-sutton": [0.09886575, 0.2447729, 0.1876467], "includesElement__electronegativity_ghosh": [0.105093, 0.2240328, 0.16423], "includesElement__electronegativity_gordy": [0.009774436, 0.05991379, 0.03521127], "includesElement__electronegativity_mulliken": [3.004882, 5.886531, 3.043178], "includesElement__electronegativity_nagle": [0.1826499, 0.592131, 0.3587038], "includesElement__electronegativity_pauling": [0.98, 2.55, 1.78], "includesElement__electronegativity_sanderson": [0.04886793, 0.9659121, 0.7172747], "includesElement__en_ghosh": [0.105093, 0.2240328, 0.16423], "includesElement__en_pauling": [0.98, 2.55, 1.78], "includesElement__evaporation_heat": [148.0, 59.7, 225.1], "includesElement__fusion_heat": [2.89, 5.23, 3.24], "includesElement__glawe_number": [12, 95, 80], "includesElement__group_id": [1, 16, 13], "includesElement__heat_of_formation": [159.3, 227.2, 243.0], "includesElement__is_radioactive": [false], "includesElement__lattice_constant": [3.49, 4.36, 4.59], "includesElement__mendeleev_number": [1, 101, 84], "includesElement__molar_heat_capacity": [24.86, 25.363, 26.74], "includesElement__period": [2, 4, 5], "includesElement__pettifor_number": [12, 93, 79], "includesElement__specific_heat_capacity": [3.582, 0.321, 0.233], "includesElement__vdw_radius": [182.0, 190.0, 193.0], "includesElement__vdw_radius_alvarez": [212.0, 182.0, 243.0], "includesElement__vdw_radius_mm3": [255.0, 229.0, 264.0], "includesElement__vdw_radius_uff": [245.1, 420.5, 446.3], "includesElement__abundance_sea": [0.18, 0.0002, 0.02], "includesElement__c6_gb": [1410.0, 233.0, 643.0], "includesElement__covalent_radius_bragg": [150.0, 117.0], "includesElement__electronegativity_allen": [5.392, 14.34, 9.793], "includesElement__en_allen": [5.392, 14.34, 9.793], "includesElement__metallic_radius": [123.0, 117.0, 142.0], "includesElement__metallic_radius_c12": [155.0, 140.0, 158.0], "includesElement__thermal_conductivity": [84.8, 0.52, 81.8], "includesElement__vdw_radius_batsanov": [220.0, 190.0], "includesElement__c6": [1392.0, 210.0, 779.0], "includesElement__vdw_radius_bondi": [181.0, 190.0, 193.0], "includesElement__covalent_radius_pyykko_triple": [107.0, 146.0], "includesElement__atomic_weight_uncertainty": [0.008, 0.001], "includesElement__vdw_radius_dreiding": [403.0, 459.0], "formula": ["In4Li4Se8"], "spacegroup": ["33"], "thermalConductivity": [0.822096], "icsd": ["60838"], "band_gap": [1.6234], "density": [4.403258], "density_atomic": [26.36786], "deprecated": [false], "efermi": [1.551895], "energy_above_hull": [0.0008275337], "energy_per_atom": [-14.45324], "formation_energy_per_atom": [-1.056137], "homogeneous_poisson": [0.302], "is_gap_direct": [true], "is_magnetic": [false], "is_metal": [false], "is_stable": [false], "nelements": [3], "nsites": [16], "num_magnetic_sites": [0], "num_unique_magnetic_sites": [0], "theoretical": [false], "total_magnetization": [0.0], "total_magnetization_normalized_formula_units": [0.0], "total_magnetization_normalized_vol": [0.0], "uncorrected_energy_per_atom": [-14.45324], "universal_anisotropy": [0.167], "volume": [421.8857], "cbm": [3.0562], "e_electronic": [5.761189], "e_ionic": [3.056889], "e_total": [8.818078], "n": [2.400248], "vbm": [1.4328], "e_ij_max": [0.2256399]}