{"includesElement": ["", "Li", "Tl", "Au"], "includesElement___series_id": [3, 7, 8], "includesElement__abundance_crust": [20.0, 0.85, 0.004], "includesElement__atomic_number": [3, 81, 79], "includesElement__atomic_radius": [145.0, 190.0, 135.0], "includesElement__atomic_radius_rahm": [220.0, 242.0, 226.0], "includesElement__atomic_volume": [13.1, 17.2, 10.2], "includesElement__atomic_weight": [6.94, 204.38, 196.9666], "includesElement__covalent_radius_cordero": [128.0, 145.0, 136.0], "includesElement__covalent_radius_pyykko": [133.0, 144.0, 124.0], "includesElement__covalent_radius_pyykko_double": [124.0, 142.0, 121.0], "includesElement__density": [0.534, 11.8, 19.3], "includesElement__dipole_polarizability": [164.1125, 50.0, 36.0], "includesElement__dipole_polarizability_unc": [0.0005, 2.0, 3.0], "includesElement__discovery_year": [1817, 1861], "includesElement__electron_affinity": [0.618049, 0.377, 2.30863], "includesElement__electronegativity_allred-rochow": [7.3492e-05, 0.0002411265, 0.0002406348], "includesElement__electronegativity_cottrell-sutton": [0.09886575, 0.186339, 0.1727388], "includesElement__electronegativity_ghosh": [0.105093, 0.173447, 0.26137], "includesElement__electronegativity_gordy": [0.009774436, 0.03472222, 0.02983871], "includesElement__electronegativity_mulliken": [3.004882, 3.242643, 5.767091], "includesElement__electronegativity_nagle": [0.1826499, 0.3914868, 0.67354], "includesElement__electronegativity_pauling": [0.98, 1.8, 2.4], "includesElement__electronegativity_sanderson": [0.04886793, 0.9245096, 1.426701], "includesElement__en_ghosh": [0.105093, 0.173447, 0.26137], "includesElement__en_pauling": [0.98, 1.8, 2.4], "includesElement__evaporation_heat": [148.0, 162.4, 340.0], "includesElement__fusion_heat": [2.89, 4.31, 12.68], "includesElement__glawe_number": [12, 81, 66], "includesElement__group_id": [1, 13, 11], "includesElement__heat_of_formation": [159.3, 182.2, 368.2], "includesElement__is_radioactive": [false], "includesElement__lattice_constant": [3.49, 3.46, 4.08], "includesElement__mendeleev_number": [1, 85, 73], "includesElement__molar_heat_capacity": [24.86, 26.32, 25.418], "includesElement__period": [2, 6], "includesElement__pettifor_number": [12, 78, 70], "includesElement__specific_heat_capacity": [3.582, 0.129], "includesElement__vdw_radius": [182.0, 196.0, 214.0], "includesElement__vdw_radius_alvarez": [212.0, 247.0, 232.0], "includesElement__vdw_radius_mm3": [255.0, 259.0, 243.0], "includesElement__vdw_radius_uff": [245.1, 434.7, 329.3], "includesElement__abundance_sea": [0.18, 1.9e-05, 4e-06], "includesElement__c6_gb": [1410.0, 509.0, 427.0], "includesElement__covalent_radius_bragg": [150.0, 190.0], "includesElement__electronegativity_allen": [5.392, 11.33], "includesElement__en_allen": [5.392, 11.33], "includesElement__metallic_radius": [123.0, 144.0, 134.0], "includesElement__metallic_radius_c12": [155.0, 160.0, 144.0], "includesElement__thermal_conductivity": [84.8, 46.1, 318.0], "includesElement__vdw_radius_batsanov": [220.0, 210.0], "includesElement__c6": [1392.0], "includesElement__vdw_radius_bondi": [181.0, 196.0], "includesElement__covalent_radius_pyykko_triple": [150.0, 123.0], "includesElement__atomic_weight_uncertainty": [5e-06], "includesElement__is_monoisotopic": [true], "formula": ["Au1Li2Tl1"], "spacegroup": ["216"], "thermalConductivity": [0.34524], "icsd": ["58534"], "band_gap": [0.0], "density": [9.276433], "density_atomic": [18.58227], "deprecated": [false], "efermi": [4.947845], "energy_above_hull": [0.02840133], "energy_per_atom": [-27.5153], "formation_energy_per_atom": [-0.3808849], "homogeneous_poisson": [0.413], "is_gap_direct": [false], "is_magnetic": [false], "is_metal": [true], "is_stable": [false], "nelements": [3], "nsites": [4], "num_magnetic_sites": [0], "num_unique_magnetic_sites": [0], "theoretical": [false], "total_magnetization": [4.12e-05], "total_magnetization_normalized_formula_units": [4.12e-05], "total_magnetization_normalized_vol": [5.542918e-07], "uncorrected_energy_per_atom": [-2.725626], "universal_anisotropy": [60.51], "volume": [74.32908]}