{"includesElement": ["", "Zn", "S", "Y"], "includesElement___series_id": [8, 1], "includesElement__abundance_crust": [70.0, 350.0, 33.0], "includesElement__atomic_number": [30, 16, 39], "includesElement__atomic_radius": [135.0, 100.0, 180.0], "includesElement__atomic_radius_rahm": [222.0, 214.0, 274.0], "includesElement__atomic_volume": [9.2, 15.5, 19.8], "includesElement__atomic_weight": [65.38, 32.06, 88.90584], "includesElement__covalent_radius_cordero": [122.0, 105.0, 190.0], "includesElement__covalent_radius_pyykko": [118.0, 103.0, 163.0], "includesElement__covalent_radius_pyykko_double": [120.0, 94.0, 130.0], "includesElement__density": [7.134, 2.07, 4.47], "includesElement__dipole_polarizability": [38.67, 19.4, 162.0], "includesElement__dipole_polarizability_unc": [0.3, 0.1, 12.0], "includesElement__electronegativity_allred-rochow": [0.0003124102, 0.0005137148, 0.0001129135], "includesElement__electronegativity_cottrell-sutton": [0.1920011, 0.2300274, 0.1356647], "includesElement__electronegativity_ghosh": [0.1551518, 0.23596, 0.1216986], "includesElement__electronegativity_gordy": [0.03686441, 0.05291262, 0.01840491], "includesElement__electronegativity_mulliken": [4.6971, 6.218557, 3.26213], "includesElement__electronegativity_nagle": [0.6770213, 0.6762644, 0.2645668], "includesElement__electronegativity_pauling": [1.65, 2.58, 1.22], "includesElement__electronegativity_sanderson": [0.8100877, 0.6397251, 0.3923941], "includesElement__en_ghosh": [0.1551518, 0.23596, 0.1216986], "includesElement__en_pauling": [1.65, 2.58, 1.22], "includesElement__evaporation_heat": [114.8, 10.5, 367.0], "includesElement__fusion_heat": [7.28, 1.23, 11.5], "includesElement__glawe_number": [74, 96, 21], "includesElement__group_id": [12, 16, 3], "includesElement__heat_of_formation": [130.4, 277.17, 424.7], "includesElement__is_radioactive": [false], "includesElement__lattice_constant": [2.66, 10.47, 3.65], "includesElement__mendeleev_number": [77, 100, 12], "includesElement__molar_heat_capacity": [25.39, 22.7, 26.53], "includesElement__period": [4, 3, 5], "includesElement__pettifor_number": [76, 94, 19], "includesElement__specific_heat_capacity": [0.388, 0.708, 0.298], "includesElement__vdw_radius": [201.0, 180.0, 232.0], "includesElement__vdw_radius_alvarez": [239.0, 189.0, 275.0], "includesElement__vdw_radius_mm3": [229.0, 215.0, 271.0], "includesElement__vdw_radius_uff": [276.3, 403.5, 334.5], "includesElement__abundance_sea": [0.0049, 905.0, 1.3e-05], "includesElement__atomic_weight_uncertainty": [0.02, 2e-05], "includesElement__c6_gb": [276.0, 140.0, 2600.0], "includesElement__covalent_radius_bragg": [132.0, 102.0], "includesElement__electronegativity_allen": [9.395, 15.31, 6.631], "includesElement__en_allen": [9.395, 15.31, 6.631], "includesElement__metallic_radius": [121.0, 104.0, 162.0], "includesElement__metallic_radius_c12": [134.0, 127.0, 180.0], "includesElement__thermal_conductivity": [116.0, 0.27], "includesElement__vdw_radius_batsanov": [210.0, 180.0, 240.0], "includesElement__c6": [284.0, 134.0], "includesElement__gas_basicity": [586.0, 640.2, 945.9], "includesElement__proton_affinity": [608.6, 664.3, 967.0], "includesElement__covalent_radius_pyykko_triple": [95.0, 124.0], "includesElement__electron_affinity": [2.077104, 0.307], "includesElement__vdw_radius_dreiding": [403.0], "includesElement__vdw_radius_bondi": [180.0], "includesElement__vdw_radius_rt": [181.0], "includesElement__discovery_year": [1789], "includesElement__is_monoisotopic": [true], "formula": ["S8Y4Zn2"], "spacegroup": ["227"], "thermalConductivity": [2.87935], "icsd": ["651411"], "band_gap": [0.6719], "density": [3.675154], "density_atomic": [23.97794], "deprecated": [false], "efermi": [2.257375], "energy_above_hull": [0.0474069], "energy_per_atom": [-13.59725], "formation_energy_per_atom": [-1.928991], "is_gap_direct": [true], "is_magnetic": [false], "is_metal": [false], "is_stable": [false], "nelements": [3], "nsites": [14], "num_magnetic_sites": [0], "num_unique_magnetic_sites": [0], "theoretical": [false], "total_magnetization": [3.9e-05], "total_magnetization_normalized_formula_units": [1.95e-05], "total_magnetization_normalized_vol": [1.161782e-07], "uncorrected_energy_per_atom": [-6.0573], "volume": [335.6911], "cbm": [2.8485], "vbm": [2.1766]}