{"includesElement": ["", "Bi", "N", "Th"], "includesElement___series_id": [7, 1, 10], "includesElement__abundance_crust": [0.0085, 19.0, 9.6], "includesElement__atomic_number": [83, 7, 90], "includesElement__atomic_radius": [160.0, 65.0, 180.0], "includesElement__atomic_radius_rahm": [250.0, 179.0, 288.0], "includesElement__atomic_volume": [21.3, 17.3, 19.8], "includesElement__atomic_weight": [208.9804, 14.007, 232.0377], "includesElement__covalent_radius_cordero": [148.0, 71.0, 206.0], "includesElement__covalent_radius_pyykko": [151.0, 71.0, 175.0], "includesElement__covalent_radius_pyykko_double": [141.0, 60.0, 143.0], "includesElement__covalent_radius_pyykko_triple": [135.0, 54.0, 136.0], "includesElement__density": [9.79, 0.001145, 11.7], "includesElement__dipole_polarizability": [48.0, 7.4, 217.0], "includesElement__dipole_polarizability_unc": [4.0, 0.2, 54.0], "includesElement__electron_affinity": [0.942362, -1.4], "includesElement__electronegativity_allred-rochow": [0.0002763037, 0.000773656, 0.0001028571], "includesElement__electronegativity_cottrell-sutton": [0.2042593, 0.2343706, 0.1341641], "includesElement__electronegativity_ghosh": [0.182377, 0.26493, 0.10277], "includesElement__electronegativity_gordy": [0.04172185, 0.05492958, 0.018], "includesElement__electronegativity_mulliken": [4.113939, 6.567065, 3.15335], "includesElement__electronegativity_nagle": [0.470518, 0.8774979, 0.2641598], "includesElement__electronegativity_pauling": [1.9, 3.04, 1.3], "includesElement__electronegativity_sanderson": [0.8136501, 0.577482, 0.5557019], "includesElement__en_ghosh": [0.182377, 0.26493, 0.10277], "includesElement__en_pauling": [1.9, 3.04, 1.3], "includesElement__evaporation_heat": [172.0, 513.7], "includesElement__fusion_heat": [11.0, 16.11], "includesElement__glawe_number": [92, 88, 34], "includesElement__group_id": [15], "includesElement__heat_of_formation": [209.6, 472.44, 602.0], "includesElement__is_radioactive": [false, true], "includesElement__lattice_constant": [4.75, 4.039, 5.08], "includesElement__mendeleev_number": [97, 93, 16], "includesElement__molar_heat_capacity": [25.52, 29.124, 27.32], "includesElement__period": [6, 2, 7], "includesElement__pettifor_number": [87, 100, 47], "includesElement__specific_heat_capacity": [0.122, 1.04, 0.118], "includesElement__vdw_radius": [207.0, 155.0, 245.0], "includesElement__vdw_radius_alvarez": [254.0, 166.0, 293.0], "includesElement__vdw_radius_mm3": [266.0, 193.0, 274.0], "includesElement__vdw_radius_uff": [437.0, 366.0, 339.6], "includesElement__abundance_sea": [2e-05, 0.5, 1e-06], "includesElement__atomic_weight_uncertainty": [1e-05, 0.0004], "includesElement__c6_gb": [513.0, 25.7], "includesElement__covalent_radius_bragg": [148.0, 65.0], "includesElement__electronegativity_allen": [11.9, 18.13], "includesElement__en_allen": [11.9, 18.13], "includesElement__metallic_radius": [151.0], "includesElement__metallic_radius_c12": [178.0, 53.0], "includesElement__thermal_conductivity": [7.9, 0.026], "includesElement__vdw_radius_batsanov": [230.0, 160.0, 240.0], "includesElement__is_monoisotopic": [true], "includesElement__vdw_radius_truhlar": [207.0], "includesElement__discovery_year": [1772, 1828], "includesElement__c6": [24.2], "includesElement__vdw_radius_dreiding": [366.21], "includesElement__gas_basicity": [318.7], "includesElement__proton_affinity": [342.2], "includesElement__vdw_radius_bondi": [155.0], "includesElement__vdw_radius_rt": [164.0], "formula": ["Bi1N2Th2"], "spacegroup": ["139"], "thermalConductivity": [6.90684], "icsd": ["16064"], "band_gap": [0.0], "density": [9.91305], "density_atomic": [23.4873], "deprecated": [false], "efermi": [6.585088], "energy_above_hull": [0.0], "energy_per_atom": [-8.736953], "formation_energy_per_atom": [-1.668001], "is_gap_direct": [false], "is_magnetic": [false], "is_metal": [true], "is_stable": [true], "nelements": [3], "nsites": [5], "num_magnetic_sites": [0], "num_unique_magnetic_sites": [0], "theoretical": [false], "total_magnetization": [4.84e-05], "total_magnetization_normalized_formula_units": [4.84e-05], "total_magnetization_normalized_vol": [4.121376e-07], "uncorrected_energy_per_atom": [-46.48069], "volume": [117.4365], "equilibrium_reaction_energy_per_atom": [-0.2315809]}