{"includesElement": ["", "Be", "Ta"], "includesElement___series_id": [4, 8], "includesElement__abundance_crust": [2.8, 2.0], "includesElement__atomic_number": [4, 73], "includesElement__atomic_radius": [105.0, 145.0], "includesElement__atomic_radius_rahm": [219.0, 258.0], "includesElement__atomic_volume": [5.0, 10.9], "includesElement__atomic_weight": [9.012183, 180.9479], "includesElement__covalent_radius_cordero": [96.0, 170.0], "includesElement__covalent_radius_pyykko": [102.0, 146.0], "includesElement__covalent_radius_pyykko_double": [90.0, 126.0], "includesElement__covalent_radius_pyykko_triple": [85.0, 119.0], "includesElement__density": [1.85, 16.4], "includesElement__dipole_polarizability": [37.74, 74.0], "includesElement__dipole_polarizability_unc": [0.03, 20.0], "includesElement__discovery_year": [1798, 1802], "includesElement__electron_affinity": [-2.4, 0.322], "includesElement__electronegativity_allred-rochow": [0.0001874279, 0.0001548133], "includesElement__electronegativity_cottrell-sutton": [0.1382666, 0.1503421], "includesElement__electronegativity_ghosh": [0.144986, 0.234581], "includesElement__electronegativity_gordy": [0.01911765, 0.02260274], "includesElement__electronegativity_mulliken": [3.461349, 3.935785], "includesElement__electronegativity_nagle": [0.3756148, 0.4072985], "includesElement__electronegativity_pauling": [1.57, 1.5], "includesElement__electronegativity_sanderson": [0.1268473, 0.8358832], "includesElement__en_ghosh": [0.144986, 0.234581], "includesElement__en_pauling": [1.57, 1.5], "includesElement__evaporation_heat": [309.0, 758.0], "includesElement__fusion_heat": [12.21, 24.7], "includesElement__glawe_number": [77, 52], "includesElement__group_id": [2, 5], "includesElement__heat_of_formation": [324.0, 782.0], "includesElement__is_radioactive": [false], "includesElement__lattice_constant": [2.29, 3.31], "includesElement__mendeleev_number": [75, 49], "includesElement__molar_heat_capacity": [16.443, 25.36], "includesElement__period": [2, 6], "includesElement__pettifor_number": [77, 53], "includesElement__specific_heat_capacity": [1.825, 0.14], "includesElement__vdw_radius": [153.0, 222.0], "includesElement__vdw_radius_alvarez": [198.0, 253.0], "includesElement__vdw_radius_mm3": [223.0, 243.0], "includesElement__vdw_radius_uff": [274.5, 317.0], "includesElement__abundance_sea": [5.6e-06, 2e-06], "includesElement__atomic_weight_uncertainty": [5e-07, 2e-05], "includesElement__c6_gb": [214.0, 887.0], "includesElement__covalent_radius_bragg": [115.0], "includesElement__electronegativity_allen": [9.323, 7.93], "includesElement__en_allen": [9.323, 7.93], "includesElement__metallic_radius": [89.0, 134.0], "includesElement__metallic_radius_c12": [112.0, 146.0], "includesElement__thermal_conductivity": [201.0, 57.5], "includesElement__vdw_radius_batsanov": [190.0, 220.0], "includesElement__c6": [227.0], "includesElement__is_monoisotopic": [true], "includesElement__vdw_radius_truhlar": [153.0], "formula": ["Be2Ta4"], "spacegroup": ["140"], "thermalConductivity": [23.8404], "icsd": ["58738"], "band_gap": [0.0], "density": [13.87204], "density_atomic": [14.79973], "deprecated": [false], "efermi": [4.961841], "energy_above_hull": [0.0], "energy_per_atom": [-9.311948], "formation_energy_per_atom": [-0.1541919], "homogeneous_poisson": [0.25], "is_gap_direct": [false], "is_magnetic": [false], "is_metal": [true], "is_stable": [true], "nelements": [2], "nsites": [6], "num_magnetic_sites": [0], "num_unique_magnetic_sites": [0], "theoretical": [false], "total_magnetization": [9e-07], "total_magnetization_normalized_formula_units": [4.5e-07], "total_magnetization_normalized_vol": [1.013532e-08], "uncorrected_energy_per_atom": [-34.01838], "universal_anisotropy": [0.266], "volume": [88.79837], "equilibrium_reaction_energy_per_atom": [-0.009796915]}