{"includesElement": ["", "Hf", "Cr"], "includesElement___series_id": [8], "includesElement__abundance_crust": [3.0, 102.0], "includesElement__atomic_number": [72, 24], "includesElement__atomic_radius": [155.0, 140.0], "includesElement__atomic_radius_rahm": [264.0, 233.0], "includesElement__atomic_volume": [13.6, 7.23], "includesElement__atomic_weight": [178.49, 51.9961], "includesElement__covalent_radius_cordero": [175.0, 139.0], "includesElement__covalent_radius_pyykko": [152.0, 122.0], "includesElement__covalent_radius_pyykko_double": [128.0, 111.0], "includesElement__covalent_radius_pyykko_triple": [122.0, 103.0], "includesElement__density": [13.3, 7.15], "includesElement__dipole_polarizability": [103.0, 83.0], "includesElement__dipole_polarizability_unc": [6.0, 12.0], "includesElement__discovery_year": [1923, 1797], "includesElement__electron_affinity": [0.014, 0.666], "includesElement__electronegativity_allred-rochow": [0.00013634, 0.0001981994], "includesElement__electronegativity_cottrell-sutton": [0.1439572, 0.1555003], "includesElement__electronegativity_ghosh": [0.229987, 0.1313053], "includesElement__electronegativity_gordy": [0.02072368, 0.02418033], "includesElement__electronegativity_mulliken": [3.419535, 3.716255], "includesElement__electronegativity_nagle": [0.3386421, 0.4165729], "includesElement__electronegativity_pauling": [1.3, 1.66], "includesElement__electronegativity_sanderson": [0.7352125, 0.6017723], "includesElement__en_ghosh": [0.229987, 0.1313053], "includesElement__en_pauling": [1.3, 1.66], "includesElement__evaporation_heat": [575.0, 342.0], "includesElement__fusion_heat": [25.1, 21.0], "includesElement__glawe_number": [50, 55], "includesElement__group_id": [4, 6], "includesElement__heat_of_formation": [618.4, 397.48], "includesElement__is_radioactive": [false], "includesElement__lattice_constant": [3.2, 2.88], "includesElement__mendeleev_number": [45, 51], "includesElement__molar_heat_capacity": [25.73, 23.35], "includesElement__period": [6, 4], "includesElement__pettifor_number": [50, 57], "includesElement__specific_heat_capacity": [0.144, 0.449], "includesElement__vdw_radius": [223.0, 206.0], "includesElement__vdw_radius_alvarez": [263.0, 245.0], "includesElement__vdw_radius_mm3": [253.0, 225.0], "includesElement__vdw_radius_uff": [314.1, 302.3], "includesElement__abundance_sea": [7e-06, 0.0003], "includesElement__atomic_weight_uncertainty": [0.02, 0.0006], "includesElement__c6_gb": [1040.0, 709.0], "includesElement__electronegativity_allen": [6.83, 9.77], "includesElement__en_allen": [6.83, 9.77], "includesElement__metallic_radius": [144.0, 119.0], "includesElement__metallic_radius_c12": [159.0, 128.0], "includesElement__thermal_conductivity": [23.0, 93.9], "includesElement__vdw_radius_batsanov": [225.0, 205.0], "includesElement__covalent_radius_bragg": [140.0], "includesElement__c6": [602.0], "includesElement__gas_basicity": [768.4], "includesElement__proton_affinity": [791.3], "formula": ["Cr4Hf2"], "spacegroup": ["227"], "thermalConductivity": [5.21894], "icsd": ["102775"], "band_gap": [0.0], "density": [10.71319], "density_atomic": [14.59486], "deprecated": [false], "efermi": [5.663383], "energy_above_hull": [0.08468114], "energy_per_atom": [-25.01469], "formation_energy_per_atom": [0.08468114], "homogeneous_poisson": [0.342], "is_gap_direct": [false], "is_magnetic": [false], "is_metal": [true], "is_stable": [false], "nelements": [2], "nsites": [6], "num_magnetic_sites": [0], "num_unique_magnetic_sites": [0], "theoretical": [false], "total_magnetization": [7.9e-06], "total_magnetization_normalized_formula_units": [3.95e-06], "total_magnetization_normalized_vol": [9.021438e-08], "uncorrected_energy_per_atom": [-25.01469], "universal_anisotropy": [0.014], "volume": [87.56919]}