{"includesElement": ["", "Ge", "Os", "Th"], "includesElement___series_id": [5, 8, 10], "includesElement__abundance_crust": [1.5, 0.0015, 9.6], "includesElement__atomic_number": [32, 76, 90], "includesElement__atomic_radius": [125.0, 130.0, 180.0], "includesElement__atomic_radius_rahm": [234.0, 244.0, 288.0], "includesElement__atomic_volume": [13.6, 8.43, 19.8], "includesElement__atomic_weight": [72.63, 190.23, 232.0377], "includesElement__covalent_radius_cordero": [120.0, 144.0, 206.0], "includesElement__covalent_radius_pyykko": [121.0, 129.0, 175.0], "includesElement__covalent_radius_pyykko_double": [111.0, 116.0, 143.0], "includesElement__covalent_radius_pyykko_triple": [114.0, 109.0, 136.0], "includesElement__density": [5.3234, 22.5872, 11.7], "includesElement__dipole_polarizability": [40.0, 57.0, 217.0], "includesElement__dipole_polarizability_unc": [1.0, 3.0, 54.0], "includesElement__discovery_year": [1886, 1804, 1828], "includesElement__electron_affinity": [1.232712, 1.1], "includesElement__electronegativity_allred-rochow": [0.0003859026, 0.000225347, 0.0001028571], "includesElement__electronegativity_cottrell-sutton": [0.2160884, 0.1704986, 0.1341641], "includesElement__electronegativity_ghosh": [0.1895892, 0.2479845, 0.10277], "includesElement__electronegativity_gordy": [0.04669421, 0.02906977, 0.018], "includesElement__electronegativity_mulliken": [4.566073, 4.769115, 3.15335], "includesElement__electronegativity_nagle": [0.4641589, 0.5196828, 0.2641598], "includesElement__electronegativity_pauling": [2.01, 2.2, 1.3], "includesElement__electronegativity_sanderson": [0.8001471, 1.239276, 0.5557019], "includesElement__en_ghosh": [0.1895892, 0.2479845, 0.10277], "includesElement__en_pauling": [2.01, 2.2, 1.3], "includesElement__evaporation_heat": [328.0, 738.0, 513.7], "includesElement__fusion_heat": [36.8, 31.7, 16.11], "includesElement__glawe_number": [84, 60, 34], "includesElement__group_id": [14, 8], "includesElement__heat_of_formation": [372.0, 787.0, 602.0], "includesElement__is_radioactive": [false, true], "includesElement__lattice_constant": [5.66, 2.74, 5.08], "includesElement__mendeleev_number": [89, 61, 16], "includesElement__molar_heat_capacity": [23.222, 24.7, 27.32], "includesElement__period": [4, 6, 7], "includesElement__pettifor_number": [84, 62, 47], "includesElement__specific_heat_capacity": [0.32, 0.13, 0.118], "includesElement__vdw_radius": [211.0, 216.0, 245.0], "includesElement__vdw_radius_alvarez": [229.0, 248.0, 293.0], "includesElement__vdw_radius_mm3": [244.0, 235.0, 274.0], "includesElement__vdw_radius_uff": [428.0, 312.0, 339.6], "includesElement__abundance_sea": [5e-05, 1e-06], "includesElement__atomic_weight_uncertainty": [0.008, 0.03, 0.0004], "includesElement__c6_gb": [365.0, 584.0], "includesElement__electronegativity_allen": [11.8, 9.78], "includesElement__en_allen": [11.8, 9.78], "includesElement__metallic_radius": [124.0, 126.0], "includesElement__metallic_radius_c12": [144.0, 135.0], "includesElement__thermal_conductivity": [60.2], "includesElement__vdw_radius_batsanov": [210.0, 200.0, 240.0], "includesElement__c6": [354.0], "includesElement__vdw_radius_dreiding": [427.0], "includesElement__vdw_radius_truhlar": [211.0], "formula": ["Ge2Os2Th1"], "spacegroup": ["139"], "thermalConductivity": [10.1031], "icsd": ["637475"], "band_gap": [0.0], "density": [13.65712], "density_atomic": [18.42732], "deprecated": [false], "efermi": [7.968735], "energy_above_hull": [0.0], "energy_per_atom": [-41.96044], "formation_energy_per_atom": [-0.5225058], "is_gap_direct": [false], "is_magnetic": [false], "is_metal": [true], "is_stable": [true], "nelements": [3], "nsites": [5], "num_magnetic_sites": [0], "num_unique_magnetic_sites": [0], "theoretical": [false], "total_magnetization": [0.0], "total_magnetization_normalized_formula_units": [0.0], "total_magnetization_normalized_vol": [0.0], "uncorrected_energy_per_atom": [-41.96044], "volume": [92.13659], "equilibrium_reaction_energy_per_atom": [-0.1155652]}