{"includesElement": ["", "Mg", "Sn", "Cu"], "includesElement___series_id": [4, 7, 8], "includesElement__abundance_crust": [23300.0, 2.3, 60.0], "includesElement__atomic_number": [12, 50, 29], "includesElement__atomic_radius": [150.0, 145.0, 135.0], "includesElement__atomic_radius_rahm": [240.0, 248.0, 217.0], "includesElement__atomic_volume": [14.0, 16.3, 7.1], "includesElement__atomic_weight": [24.305, 118.71, 63.546], "includesElement__covalent_radius_cordero": [141.0, 139.0, 132.0], "includesElement__covalent_radius_pyykko": [139.0, 140.0, 112.0], "includesElement__covalent_radius_pyykko_double": [132.0, 130.0, 115.0], "includesElement__covalent_radius_pyykko_triple": [127.0, 132.0, 120.0], "includesElement__density": [1.74, 7.287, 8.96], "includesElement__dipole_polarizability": [71.2, 53.0, 46.5], "includesElement__dipole_polarizability_unc": [0.4, 6.0, 0.5], "includesElement__discovery_year": [1808], "includesElement__electronegativity_allred-rochow": [0.0001475079, 0.0002882653, 0.0002949617], "includesElement__electronegativity_cottrell-sutton": [0.1431908, 0.2008909, 0.1817573], "includesElement__electronegativity_ghosh": [0.121644, 0.178052, 0.1511716], "includesElement__electronegativity_gordy": [0.0205036, 0.04035714, 0.03303571], "includesElement__electronegativity_mulliken": [3.823117, 4.227992, 4.48069], "includesElement__electronegativity_nagle": [0.3039835, 0.4225986, 0.6184623], "includesElement__electronegativity_pauling": [1.31, 1.96, 1.9], "includesElement__electronegativity_sanderson": [0.1524211, 0.7622797, 0.9175542], "includesElement__en_ghosh": [0.121644, 0.178052, 0.1511716], "includesElement__en_pauling": [1.31, 1.96, 1.9], "includesElement__evaporation_heat": [131.8, 296.0, 304.6], "includesElement__fusion_heat": [9.2, 7.07, 13.01], "includesElement__glawe_number": [73, 83, 68], "includesElement__group_id": [2, 14, 11], "includesElement__heat_of_formation": [147.1, 301.2, 337.4], "includesElement__is_radioactive": [false], "includesElement__lattice_constant": [3.21, 5.82, 3.61], "includesElement__mendeleev_number": [76, 90, 71], "includesElement__molar_heat_capacity": [24.869, 26.99, 24.44], "includesElement__period": [3, 5, 4], "includesElement__pettifor_number": [73, 83, 72], "includesElement__specific_heat_capacity": [1.023, 0.227, 0.385], "includesElement__vdw_radius": [173.0, 217.0, 196.0], "includesElement__vdw_radius_alvarez": [251.0, 242.0, 238.0], "includesElement__vdw_radius_mm3": [243.0, 259.0, 226.0], "includesElement__vdw_radius_uff": [302.1, 439.2, 349.5], "includesElement__abundance_sea": [1290.0, 4e-06, 0.00025], "includesElement__c6_gb": [629.0, 715.0, 264.0], "includesElement__covalent_radius_bragg": [142.0, 140.0, 137.0], "includesElement__electronegativity_allen": [7.646, 10.79, 10.96], "includesElement__en_allen": [7.646, 10.79, 10.96], "includesElement__metallic_radius": [136.0, 142.0, 118.0], "includesElement__metallic_radius_c12": [160.0, 163.0, 128.0], "includesElement__thermal_conductivity": [156.0, 66.8, 401.0], "includesElement__vdw_radius_batsanov": [220.0, 225.0, 200.0], "includesElement__c6": [626.0, 659.0, 253.0], "includesElement__gas_basicity": [797.3, 632.4], "includesElement__proton_affinity": [819.6, 655.3], "includesElement__vdw_radius_bondi": [173.0, 217.0], "includesElement__electron_affinity": [1.112067, 1.235], "includesElement__atomic_weight_uncertainty": [0.007, 0.003], "includesElement__vdw_radius_dreiding": [447.0], "formula": ["Cu1Mg1Sn1"], "spacegroup": ["216"], "thermalConductivity": [0.402978], "icsd": ["103054"], "band_gap": [0.0], "density": [5.233167], "density_atomic": [21.848], "deprecated": [false], "efermi": [5.402447], "energy_above_hull": [0.2624813], "energy_per_atom": [-3.151356], "formation_energy_per_atom": [0.09506045], "is_gap_direct": [false], "is_magnetic": [false], "is_metal": [true], "is_stable": [false], "nelements": [3], "nsites": [3], "num_magnetic_sites": [0], "num_unique_magnetic_sites": [0], "theoretical": [false], "total_magnetization": [8.3e-06], "total_magnetization_normalized_formula_units": [8.3e-06], "total_magnetization_normalized_vol": [1.266325e-07], "uncorrected_energy_per_atom": [-3.151356], "volume": [65.54399]}