{"includesElement": ["", "O", "Rb", "Br"], "includesElement___series_id": [1, 3, 6], "includesElement__abundance_crust": [461000.0, 90.0, 2.4], "includesElement__atomic_number": [8, 37, 35], "includesElement__atomic_radius": [60.0, 235.0, 115.0], "includesElement__atomic_radius_rahm": [171.0, 240.0, 219.0], "includesElement__atomic_volume": [14.0, 55.9, 23.5], "includesElement__atomic_weight": [15.999, 85.4678, 79.904], "includesElement__covalent_radius_cordero": [66.0, 220.0, 120.0], "includesElement__covalent_radius_pyykko": [63.0, 210.0, 114.0], "includesElement__covalent_radius_pyykko_double": [57.0, 202.0, 109.0], "includesElement__covalent_radius_pyykko_triple": [53.0, 110.0], "includesElement__density": [0.001308, 1.53, 3.1028], "includesElement__dipole_polarizability": [5.3, 319.8, 21.0], "includesElement__dipole_polarizability_unc": [0.2, 0.3, 1.0], "includesElement__discovery_year": [1774, 1861, 1826], "includesElement__electron_affinity": [1.461113, 0.48592, 3.363588], "includesElement__electronegativity_allred-rochow": [0.001146384, 4.988662e-05, 0.0005847953], "includesElement__electronegativity_cottrell-sutton": [0.2687419, 0.1023533, 0.2581989], "includesElement__electronegativity_ghosh": [0.304575, 0.104686, 0.2412578], "includesElement__electronegativity_gordy": [0.07222222, 0.01047619, 0.06666667], "includesElement__electronegativity_mulliken": [7.539584, 2.331524, 7.588699], "includesElement__electronegativity_nagle": [1.042218, 0.1462314, 0.6933613], "includesElement__electronegativity_pauling": [3.44, 0.82, 2.96], "includesElement__electronegativity_sanderson": [0.9416494, 0.1764136, 1.049026], "includesElement__en_ghosh": [0.304575, 0.104686, 0.2412578], "includesElement__en_pauling": [3.44, 0.82, 2.96], "includesElement__glawe_number": [97, 9, 100], "includesElement__group_id": [16, 1, 17], "includesElement__heat_of_formation": [249.229, 80.9, 111.85], "includesElement__is_radioactive": [false], "includesElement__lattice_constant": [6.83, 5.59, 6.67], "includesElement__mendeleev_number": [99, 4, 108], "includesElement__molar_heat_capacity": [29.378, 31.06, 75.69], "includesElement__period": [2, 5, 4], "includesElement__pettifor_number": [101, 9, 98], "includesElement__specific_heat_capacity": [0.918, 0.363, 0.474], "includesElement__vdw_radius": [152.0, 303.0, 185.0], "includesElement__vdw_radius_alvarez": [150.0, 321.0, 186.0], "includesElement__vdw_radius_mm3": [182.0, 325.0, 222.0], "includesElement__vdw_radius_uff": [350.0, 411.4, 418.9], "includesElement__abundance_sea": [857000.0, 0.12, 67.3], "includesElement__c6_gb": [16.7, 4660.0, 187.0], "includesElement__covalent_radius_bragg": [65.0, 225.0, 119.0], "includesElement__electronegativity_allen": [21.36, 4.177, 15.88], "includesElement__en_allen": [21.36, 4.177, 15.88], "includesElement__thermal_conductivity": [0.027, 58.2, 0.005], "includesElement__vdw_radius_batsanov": [155.0, 290.0, 190.0], "includesElement__c6": [15.6, 4769.0, 162.0], "includesElement__vdw_radius_dreiding": [340.46, 395.0], "includesElement__gas_basicity": [459.6, 531.2], "includesElement__proton_affinity": [485.2, 554.4], "includesElement__vdw_radius_bondi": [152.0, 183.0], "includesElement__vdw_radius_rt": [158.0, 187.0], "includesElement__evaporation_heat": [75.8, 29.56], "includesElement__fusion_heat": [2.2, 10.57], "includesElement__atomic_weight_uncertainty": [0.0003], "includesElement__metallic_radius": [216.0], "includesElement__metallic_radius_c12": [248.0, 117.0], "includesElement__vdw_radius_truhlar": [303.0], "formula": ["Br1O1Rb3"], "spacegroup": ["221"], "thermalConductivity": [0.773636], "icsd": ["77196"], "band_gap": [0.3851], "density": [3.559935], "density_atomic": [32.86685], "deprecated": [false], "efermi": [1.433194], "energy_above_hull": [0.002794593], "energy_per_atom": [-3.405708], "formation_energy_per_atom": [-1.516329], "is_gap_direct": [true], "is_magnetic": [false], "is_metal": [false], "is_stable": [false], "nelements": [3], "nsites": [5], "num_magnetic_sites": [0], "num_unique_magnetic_sites": [0], "theoretical": [false], "total_magnetization": [0.0], "total_magnetization_normalized_formula_units": [0.0], "total_magnetization_normalized_vol": [0.0], "uncorrected_energy_per_atom": [-13.63637], "volume": [164.3342], "cbm": [1.729], "e_electronic": [3.459951], "e_ionic": [19.63318], "e_total": [23.09313], "n": [1.860094], "vbm": [1.3439]}