{"includesElement": ["", "Zr", "F", "V"], "includesElement___series_id": [8, 6], "includesElement__abundance_crust": [165.0, 585.0, 120.0], "includesElement__atomic_number": [40, 9, 23], "includesElement__atomic_radius": [155.0, 50.0, 135.0], "includesElement__atomic_radius_rahm": [269.0, 163.0, 252.0], "includesElement__atomic_volume": [14.1, 17.1, 8.35], "includesElement__atomic_weight": [91.224, 18.9984, 50.9415], "includesElement__covalent_radius_cordero": [175.0, 57.0, 153.0], "includesElement__covalent_radius_pyykko": [154.0, 64.0, 134.0], "includesElement__covalent_radius_pyykko_double": [127.0, 59.0, 112.0], "includesElement__covalent_radius_pyykko_triple": [121.0, 53.0, 106.0], "includesElement__density": [6.52, 0.001553, 6.0], "includesElement__dipole_polarizability": [112.0, 3.74, 87.0], "includesElement__dipole_polarizability_unc": [13.0, 0.08, 10.0], "includesElement__discovery_year": [1789, 1886, 1830], "includesElement__electron_affinity": [0.426, 3.40119, 0.525], "includesElement__electronegativity_allred-rochow": [0.0001328217, 0.001269531, 0.0001837826], "includesElement__electronegativity_cottrell-sutton": [0.1430194, 0.2850439, 0.1569295], "includesElement__electronegativity_ghosh": [0.1248887, 0.344443, 0.1273344], "includesElement__electronegativity_gordy": [0.02045455, 0.08125, 0.02462687], "includesElement__electronegativity_mulliken": [3.52995, 10.412, 3.635594], "includesElement__electronegativity_nagle": [0.3293169, 1.232373, 0.3859078], "includesElement__electronegativity_pauling": [1.33, 3.98, 1.63], "includesElement__electronegativity_sanderson": [0.4744467, 1.017681, 0.4388898], "includesElement__en_ghosh": [0.1248887, 0.344443, 0.1273344], "includesElement__en_pauling": [1.33, 3.98, 1.63], "includesElement__evaporation_heat": [567.0, 6.54, 460.0], "includesElement__fusion_heat": [19.2, 0.51, 17.5], "includesElement__glawe_number": [49, 102, 54], "includesElement__group_id": [4, 17, 5], "includesElement__heat_of_formation": [610.0, 79.335, 515.5], "includesElement__is_radioactive": [false], "includesElement__lattice_constant": [3.23, 3.02], "includesElement__mendeleev_number": [44, 106, 47], "includesElement__molar_heat_capacity": [25.36, 31.304, 24.89], "includesElement__period": [5, 2, 4], "includesElement__pettifor_number": [49, 102, 54], "includesElement__specific_heat_capacity": [0.278, 0.824, 0.489], "includesElement__vdw_radius": [223.0, 147.0, 207.0], "includesElement__vdw_radius_alvarez": [252.0, 146.0, 242.0], "includesElement__vdw_radius_mm3": [254.0, 171.0, 229.0], "includesElement__vdw_radius_uff": [312.4, 336.4, 314.4], "includesElement__abundance_sea": [3e-05, 1.3, 0.0025], "includesElement__atomic_weight_uncertainty": [0.002, 6e-09, 0.0001], "includesElement__c6_gb": [1360.0, 10.2, 955.0], "includesElement__electronegativity_allen": [7.808, 24.8, 9.063], "includesElement__en_allen": [7.808, 24.8, 9.063], "includesElement__metallic_radius": [145.0, 122.0], "includesElement__metallic_radius_c12": [160.0, 134.0], "includesElement__thermal_conductivity": [22.7, 0.028, 30.7], "includesElement__vdw_radius_batsanov": [230.0, 150.0, 205.0], "includesElement__covalent_radius_bragg": [67.0], "includesElement__c6": [9.52, 832.0], "includesElement__is_monoisotopic": [true], "includesElement__vdw_radius_dreiding": [347.2], "includesElement__gas_basicity": [315.1, 836.8], "includesElement__proton_affinity": [340.1, 859.4], "includesElement__vdw_radius_bondi": [147.0], "includesElement__vdw_radius_rt": [146.0], "formula": ["F6V1Zr1"], "spacegroup": ["225"], "thermalConductivity": [4.11857], "icsd": ["73354"], "band_gap": [2.4073], "density": [3.154315], "density_atomic": [16.85615], "deprecated": [false], "efermi": [0.1601316], "energy_above_hull": [0.002055395], "energy_per_atom": [-10.59611], "formation_energy_per_atom": [-3.648452], "is_gap_direct": [false], "is_magnetic": [true], "is_metal": [false], "is_stable": [false], "nelements": [3], "nsites": [8], "num_magnetic_sites": [1], "num_unique_magnetic_sites": [1], "theoretical": [false], "total_magnetization": [3.0], "total_magnetization_normalized_formula_units": [3.0], "total_magnetization_normalized_vol": [0.02224707], "uncorrected_energy_per_atom": [-10.59611], "volume": [134.8492], "cbm": [2.4147], "e_electronic": [2.394777], "e_ionic": [2.472166], "e_total": [4.866943], "n": [1.547507], "vbm": [0.0074]}