{"includesElement": ["", "Se", "Sc"], "includesElement___series_id": [1, 8], "includesElement__abundance_crust": [0.05, 22.0], "includesElement__atomic_number": [34, 21], "includesElement__atomic_radius": [115.0, 160.0], "includesElement__atomic_radius_rahm": [224.0, 263.0], "includesElement__atomic_volume": [16.5, 15.0], "includesElement__atomic_weight": [78.971, 44.95591], "includesElement__covalent_radius_cordero": [120.0, 170.0], "includesElement__covalent_radius_pyykko": [116.0, 148.0], "includesElement__covalent_radius_pyykko_double": [107.0, 116.0], "includesElement__covalent_radius_pyykko_triple": [107.0, 114.0], "includesElement__density": [4.809, 2.99], "includesElement__dipole_polarizability": [28.9, 97.0], "includesElement__dipole_polarizability_unc": [1.0, 10.0], "includesElement__discovery_year": [1818, 1879], "includesElement__electron_affinity": [2.02067, 0.188], "includesElement__electronegativity_allred-rochow": [0.0005164982, 0.0001369613], "includesElement__electronegativity_cottrell-sutton": [0.2447729, 0.1423737], "includesElement__electronegativity_ghosh": [0.2240328, 0.1193833], "includesElement__electronegativity_gordy": [0.05991379, 0.02027027], "includesElement__electronegativity_mulliken": [5.886531, 3.374745], "includesElement__electronegativity_nagle": [0.592131, 0.3138941], "includesElement__electronegativity_pauling": [2.55, 1.36], "includesElement__electronegativity_sanderson": [0.9659121, 0.3038674], "includesElement__en_ghosh": [0.2240328, 0.1193833], "includesElement__en_pauling": [2.55, 1.36], "includesElement__evaporation_heat": [59.7, 332.7], "includesElement__fusion_heat": [5.23, 15.8], "includesElement__glawe_number": [95, 48], "includesElement__group_id": [16, 3], "includesElement__heat_of_formation": [227.2, 377.8], "includesElement__is_radioactive": [false], "includesElement__lattice_constant": [4.36, 3.31], "includesElement__mendeleev_number": [101, 11], "includesElement__molar_heat_capacity": [25.363, 25.52], "includesElement__period": [4], "includesElement__pettifor_number": [93, 20], "includesElement__specific_heat_capacity": [0.321, 0.568], "includesElement__vdw_radius": [190.0, 215.0], "includesElement__vdw_radius_alvarez": [182.0, 258.0], "includesElement__vdw_radius_mm3": [229.0, 261.0], "includesElement__vdw_radius_uff": [420.5, 329.5], "includesElement__abundance_sea": [0.0002, 6e-07], "includesElement__atomic_weight_uncertainty": [0.008, 5e-06], "includesElement__c6_gb": [233.0, 1570.0], "includesElement__covalent_radius_bragg": [117.0], "includesElement__electronegativity_allen": [14.34, 7.042], "includesElement__en_allen": [14.34, 7.042], "includesElement__metallic_radius": [117.0, 144.0], "includesElement__metallic_radius_c12": [140.0, 162.0], "includesElement__thermal_conductivity": [0.52, 15.8], "includesElement__vdw_radius_batsanov": [190.0, 230.0], "includesElement__c6": [210.0, 1383.0], "includesElement__vdw_radius_dreiding": [403.0], "includesElement__vdw_radius_bondi": [190.0], "includesElement__is_monoisotopic": [true], "includesElement__gas_basicity": [892.0], "includesElement__proton_affinity": [914.0], "formula": ["Sc1Se1"], "spacegroup": ["225"], "thermalConductivity": [7.87107], "icsd": ["44972"], "band_gap": [0.0], "density": [5.034684], "density_atomic": [20.43497], "deprecated": [false], "efermi": [6.269597], "energy_above_hull": [0.0], "energy_per_atom": [-14.64369], "formation_energy_per_atom": [-1.788664], "homogeneous_poisson": [0.291], "is_gap_direct": [false], "is_magnetic": [false], "is_metal": [true], "is_stable": [true], "nelements": [2], "nsites": [2], "num_magnetic_sites": [0], "num_unique_magnetic_sites": [0], "theoretical": [false], "total_magnetization": [5.26e-05], "total_magnetization_normalized_formula_units": [5.26e-05], "total_magnetization_normalized_vol": [1.28701e-06], "uncorrected_energy_per_atom": [-14.64369], "universal_anisotropy": [2.597], "volume": [40.86994], "equilibrium_reaction_energy_per_atom": [-0.1526471]}