{"includesElement": ["", "Cl", "U"], "includesElement___series_id": [6, 10], "includesElement__abundance_crust": [145.0, 2.7], "includesElement__atomic_number": [17, 92], "includesElement__atomic_radius": [100.0, 175.0], "includesElement__atomic_radius_rahm": [206.0, 283.0], "includesElement__atomic_volume": [18.7, 12.5], "includesElement__atomic_weight": [35.45, 238.0289], "includesElement__covalent_radius_cordero": [102.0, 196.0], "includesElement__covalent_radius_pyykko": [99.0, 170.0], "includesElement__covalent_radius_pyykko_double": [95.0, 134.0], "includesElement__covalent_radius_pyykko_triple": [93.0, 118.0], "includesElement__density": [0.002898, 19.1], "includesElement__dipole_polarizability": [14.6, 129.0], "includesElement__dipole_polarizability_unc": [0.1, 17.0], "includesElement__discovery_year": [1774, 1789], "includesElement__electron_affinity": [3.612725], "includesElement__electronegativity_allred-rochow": [0.0006223855, 0.0001038062], "includesElement__electronegativity_cottrell-sutton": [0.248226, 0.1328422], "includesElement__electronegativity_ghosh": [0.263803, 0.13207], "includesElement__electronegativity_gordy": [0.06161616, 0.01764706], "includesElement__electronegativity_mulliken": [8.290178, 3.097025], "includesElement__electronegativity_nagle": [0.7826755, 0.3596283], "includesElement__electronegativity_pauling": [3.16, 1.7], "includesElement__electronegativity_sanderson": [0.8123773, 0.618118], "includesElement__en_ghosh": [0.263803, 0.13207], "includesElement__en_pauling": [3.16, 1.7], "includesElement__evaporation_heat": [20.41, 417.0], "includesElement__fusion_heat": [6.41, 12.6], "includesElement__glawe_number": [101, 36], "includesElement__group_id": [17], "includesElement__heat_of_formation": [121.302, 533.0], "includesElement__is_radioactive": [false, true], "includesElement__lattice_constant": [6.24, 2.85], "includesElement__mendeleev_number": [107, 20], "includesElement__molar_heat_capacity": [33.949, 27.665], "includesElement__period": [3, 7], "includesElement__pettifor_number": [99, 45], "includesElement__specific_heat_capacity": [0.479, 0.116], "includesElement__vdw_radius": [175.0, 241.0], "includesElement__vdw_radius_alvarez": [182.0, 271.0], "includesElement__vdw_radius_mm3": [207.0, 252.0], "includesElement__vdw_radius_uff": [394.7, 339.5], "includesElement__abundance_sea": [19400.0, 0.0032], "includesElement__c6_gb": [97.1], "includesElement__covalent_radius_bragg": [105.0], "includesElement__electronegativity_allen": [16.97], "includesElement__en_allen": [16.97], "includesElement__metallic_radius_c12": [91.0], "includesElement__thermal_conductivity": [0.009, 27.5], "includesElement__vdw_radius_batsanov": [180.0, 230.0], "includesElement__c6": [94.6], "includesElement__vdw_radius_dreiding": [395.03], "includesElement__gas_basicity": [490.1, 973.2], "includesElement__proton_affinity": [513.6, 995.2], "includesElement__vdw_radius_bondi": [175.0], "includesElement__vdw_radius_rt": [176.0], "includesElement__atomic_weight_uncertainty": [3e-05], "formula": ["Cl8U2"], "spacegroup": ["141"], "thermalConductivity": [2.68205], "icsd": ["202331"], "band_gap": [0.0], "density": [4.746136], "density_atomic": [26.57912], "deprecated": [false], "efermi": [3.697687], "energy_above_hull": [0.0], "energy_per_atom": [-22.98499], "formation_energy_per_atom": [-2.07463], "is_gap_direct": [false], "is_magnetic": [true], "is_metal": [true], "is_stable": [true], "nelements": [2], "nsites": [10], "num_magnetic_sites": [2], "num_unique_magnetic_sites": [1], "theoretical": [false], "total_magnetization": [4.0], "total_magnetization_normalized_formula_units": [2.0], "total_magnetization_normalized_vol": [0.01504941], "uncorrected_energy_per_atom": [-22.98499], "volume": [265.7912], "equilibrium_reaction_energy_per_atom": [-0.08000858]}