{"includesElement": ["", "Li", "Au", "C"], "includesElement___series_id": [3, 8, 1], "includesElement__abundance_crust": [20.0, 0.004, 200.0], "includesElement__atomic_number": [3, 79, 6], "includesElement__atomic_radius": [145.0, 135.0, 70.0], "includesElement__atomic_radius_rahm": [220.0, 226.0, 190.0], "includesElement__atomic_volume": [13.1, 10.2, 5.3], "includesElement__atomic_weight": [6.94, 196.9666, 12.011], "includesElement__covalent_radius_cordero": [128.0, 136.0, 73.0], "includesElement__covalent_radius_pyykko": [133.0, 124.0, 75.0], "includesElement__covalent_radius_pyykko_double": [124.0, 121.0, 67.0], "includesElement__density": [0.534, 19.3, 2.2], "includesElement__dipole_polarizability": [164.1125, 36.0, 11.3], "includesElement__dipole_polarizability_unc": [0.0005, 3.0, 0.2], "includesElement__discovery_year": [1817], "includesElement__electron_affinity": [0.618049, 2.30863, 1.262119], "includesElement__electronegativity_allred-rochow": [7.3492e-05, 0.0002406348, 0.0005777778], "includesElement__electronegativity_cottrell-sutton": [0.09886575, 0.1727388, 0.2081666], "includesElement__electronegativity_ghosh": [0.105093, 0.26137, 0.224776], "includesElement__electronegativity_gordy": [0.009774436, 0.02983871, 0.04333333], "includesElement__electronegativity_mulliken": [3.004882, 5.767091, 6.261208], "includesElement__electronegativity_nagle": [0.1826499, 0.67354, 0.7073926], "includesElement__electronegativity_pauling": [0.98, 2.4, 2.55], "includesElement__electronegativity_sanderson": [0.04886793, 1.426701, 0.427525], "includesElement__en_ghosh": [0.105093, 0.26137, 0.224776], "includesElement__en_pauling": [0.98, 2.4, 2.55], "includesElement__evaporation_heat": [148.0, 340.0], "includesElement__fusion_heat": [2.89, 12.68], "includesElement__glawe_number": [12, 66, 87], "includesElement__group_id": [1, 11, 14], "includesElement__heat_of_formation": [159.3, 368.2, 716.87], "includesElement__is_radioactive": [false], "includesElement__lattice_constant": [3.49, 4.08, 3.57], "includesElement__mendeleev_number": [1, 73, 87], "includesElement__molar_heat_capacity": [24.86, 25.418, 8.517], "includesElement__period": [2, 6], "includesElement__pettifor_number": [12, 70, 95], "includesElement__specific_heat_capacity": [3.582, 0.129, 0.709], "includesElement__vdw_radius": [182.0, 214.0, 170.0], "includesElement__vdw_radius_alvarez": [212.0, 232.0, 177.0], "includesElement__vdw_radius_mm3": [255.0, 243.0, 204.0], "includesElement__vdw_radius_uff": [245.1, 329.3, 385.1], "includesElement__abundance_sea": [0.18, 4e-06, 28.0], "includesElement__c6_gb": [1410.0, 427.0, 47.9], "includesElement__covalent_radius_bragg": [150.0, 77.0], "includesElement__electronegativity_allen": [5.392, 11.33, 15.05], "includesElement__en_allen": [5.392, 11.33, 15.05], "includesElement__metallic_radius": [123.0, 134.0], "includesElement__metallic_radius_c12": [155.0, 144.0, 86.0], "includesElement__thermal_conductivity": [84.8, 318.0, 1.59], "includesElement__vdw_radius_batsanov": [220.0, 210.0, 170.0], "includesElement__c6": [1392.0, 46.6], "includesElement__vdw_radius_bondi": [181.0, 170.0], "includesElement__covalent_radius_pyykko_triple": [123.0, 60.0], "includesElement__atomic_weight_uncertainty": [5e-06], "includesElement__is_monoisotopic": [true], "includesElement__vdw_radius_dreiding": [389.83], "includesElement__vdw_radius_rt": [177.0], "formula": ["Au1C2Li1"], "spacegroup": ["187"], "thermalConductivity": [6.58631], "icsd": ["411253"], "band_gap": [1.5321], "density": [5.56964], "density_atomic": [16.98875], "deprecated": [false], "efermi": [-0.2712008], "energy_above_hull": [0.4987601], "energy_per_atom": [-5.682387], "formation_energy_per_atom": [0.2276466], "homogeneous_poisson": [0.285], "is_gap_direct": [false], "is_magnetic": [false], "is_metal": [false], "is_stable": [false], "nelements": [3], "nsites": [4], "num_magnetic_sites": [0], "num_unique_magnetic_sites": [0], "theoretical": [false], "total_magnetization": [0.0], "total_magnetization_normalized_formula_units": [0.0], "total_magnetization_normalized_vol": [0.0], "uncorrected_energy_per_atom": [-5.682387], "universal_anisotropy": [33.125], "volume": [67.95501], "cbm": [1.1364], "vbm": [-0.3957]}