{"includesElement": ["", "Pb", "La", "C"], "includesElement___series_id": [7, 9, 1], "includesElement__abundance_crust": [14.0, 39.0, 200.0], "includesElement__atomic_number": [82, 57, 6], "includesElement__atomic_radius": [180.0, 195.0, 70.0], "includesElement__atomic_radius_rahm": [249.0, 284.0, 190.0], "includesElement__atomic_volume": [18.3, 22.5, 5.3], "includesElement__atomic_weight": [207.2, 138.9055, 12.011], "includesElement__covalent_radius_cordero": [146.0, 207.0, 73.0], "includesElement__covalent_radius_pyykko": [144.0, 180.0, 75.0], "includesElement__covalent_radius_pyykko_double": [135.0, 139.0, 67.0], "includesElement__covalent_radius_pyykko_triple": [137.0, 139.0, 60.0], "includesElement__density": [11.3, 6.15, 2.2], "includesElement__dipole_polarizability": [47.0, 215.0, 11.3], "includesElement__dipole_polarizability_unc": [3.0, 20.0, 0.2], "includesElement__electron_affinity": [0.3567432, 0.47, 1.262119], "includesElement__electronegativity_allred-rochow": [0.000272473, 9.259259e-05, 0.0005777778], "includesElement__electronegativity_cottrell-sutton": [0.1980811, 0.1290994, 0.2081666], "includesElement__electronegativity_ghosh": [0.177911, 0.163142, 0.224776], "includesElement__electronegativity_gordy": [0.03923611, 0.01666667, 0.04333333], "includesElement__electronegativity_mulliken": [3.886711, 3.02345, 6.261208], "includesElement__electronegativity_nagle": [0.4398663, 0.240747, 0.7073926], "includesElement__electronegativity_pauling": [1.8, 1.1, 2.55], "includesElement__electronegativity_sanderson": [0.9313226, 0.3946505, 0.427525], "includesElement__en_ghosh": [0.177911, 0.163142, 0.224776], "includesElement__en_pauling": [1.8, 1.1, 2.55], "includesElement__evaporation_heat": [177.8, 402.0], "includesElement__fusion_heat": [4.77, 8.5], "includesElement__glawe_number": [82, 32, 87], "includesElement__group_id": [14, 3], "includesElement__heat_of_formation": [195.2, 431.0, 716.87], "includesElement__is_radioactive": [false], "includesElement__lattice_constant": [4.95, 3.75, 3.57], "includesElement__mendeleev_number": [91, 13, 87], "includesElement__molar_heat_capacity": [26.84, 27.11, 8.517], "includesElement__period": [6, 2], "includesElement__pettifor_number": [82, 33, 95], "includesElement__specific_heat_capacity": [0.13, 0.195, 0.709], "includesElement__vdw_radius": [202.0, 243.0, 170.0], "includesElement__vdw_radius_alvarez": [260.0, 298.0, 177.0], "includesElement__vdw_radius_mm3": [274.0, 278.0, 204.0], "includesElement__vdw_radius_uff": [429.7, 352.2, 385.1], "includesElement__abundance_sea": [3e-05, 3.4e-06, 28.0], "includesElement__atomic_weight_uncertainty": [0.1, 7e-05], "includesElement__c6_gb": [534.0, 3730.0, 47.9], "includesElement__electronegativity_allen": [10.97, 15.05], "includesElement__en_allen": [10.97, 15.05], "includesElement__metallic_radius": [150.0, 169.0], "includesElement__metallic_radius_c12": [170.0, 187.0, 86.0], "includesElement__thermal_conductivity": [35.3, 13.4, 1.59], "includesElement__vdw_radius_batsanov": [230.0, 250.0, 170.0], "includesElement__vdw_radius_bondi": [202.0, 170.0], "includesElement__discovery_year": [1839], "includesElement__gas_basicity": [991.9], "includesElement__proton_affinity": [1013.0], "includesElement__covalent_radius_bragg": [77.0], "includesElement__c6": [46.6], "includesElement__vdw_radius_dreiding": [389.83], "includesElement__vdw_radius_rt": [177.0], "formula": ["C1La3Pb1"], "spacegroup": ["221"], "thermalConductivity": [6.1254], "icsd": ["56409"], "band_gap": [0.0], "density": [7.342931], "density_atomic": [28.76186], "deprecated": [false], "efermi": [7.754013], "energy_above_hull": [0.0], "energy_per_atom": [-5.978349], "formation_energy_per_atom": [-0.428482], "homogeneous_poisson": [0.231], "is_gap_direct": [false], "is_magnetic": [false], "is_metal": [true], "is_stable": [true], "nelements": [3], "nsites": [5], "num_magnetic_sites": [0], "num_unique_magnetic_sites": [0], "theoretical": [false], "total_magnetization": [0.1915083], "total_magnetization_normalized_formula_units": [0.1915083], "total_magnetization_normalized_vol": [0.001331682], "uncorrected_energy_per_atom": [-31.6804], "universal_anisotropy": [0.121], "volume": [143.8093], "equilibrium_reaction_energy_per_atom": [-0.07568324]}