{"includesElement": ["", "Al", "Zr", "Fe"], "includesElement___series_id": [7, 8], "includesElement__abundance_crust": [82300.0, 165.0, 56300.0], "includesElement__atomic_number": [13, 40, 26], "includesElement__atomic_radius": [125.0, 155.0, 140.0], "includesElement__atomic_radius_rahm": [239.0, 269.0, 237.0], "includesElement__atomic_volume": [10.0, 14.1, 7.1], "includesElement__atomic_weight": [26.98154, 91.224, 55.845], "includesElement__covalent_radius_cordero": [121.0, 175.0, 142.0], "includesElement__covalent_radius_pyykko": [126.0, 154.0, 116.0], "includesElement__covalent_radius_pyykko_double": [113.0, 127.0, 109.0], "includesElement__covalent_radius_pyykko_triple": [111.0, 121.0, 102.0], "includesElement__density": [2.7, 6.52, 7.87], "includesElement__dipole_polarizability": [57.8, 112.0, 62.0], "includesElement__dipole_polarizability_unc": [1.0, 13.0, 4.0], "includesElement__discovery_year": [1825, 1789], "includesElement__electron_affinity": [0.43283, 0.426, 0.151], "includesElement__electronegativity_allred-rochow": [0.0002204586, 0.0001328217, 0.0002786861], "includesElement__electronegativity_cottrell-sutton": [0.1666667, 0.1430194, 0.1797987], "includesElement__electronegativity_ghosh": [0.150078, 0.1248887, 0.1392532], "includesElement__electronegativity_gordy": [0.02777778, 0.02045455, 0.03232759], "includesElement__electronegativity_mulliken": [3.209299, 3.52995, 4.026734], "includesElement__electronegativity_nagle": [0.3730192, 0.3293169, 0.5053195], "includesElement__electronegativity_pauling": [1.61, 1.33, 1.83], "includesElement__electronegativity_sanderson": [0.2360927, 0.4744467, 0.748727], "includesElement__en_ghosh": [0.150078, 0.1248887, 0.1392532], "includesElement__en_pauling": [1.61, 1.33, 1.83], "includesElement__evaporation_heat": [284.1, 567.0, 340.0], "includesElement__fusion_heat": [10.75, 19.2, 13.8], "includesElement__glawe_number": [78, 49, 71], "includesElement__group_id": [13, 4, 8], "includesElement__heat_of_formation": [330.9, 610.0, 415.5], "includesElement__is_radioactive": [false], "includesElement__lattice_constant": [4.05, 3.23, 2.87], "includesElement__mendeleev_number": [82, 44, 59], "includesElement__molar_heat_capacity": [24.2, 25.36, 25.1], "includesElement__period": [3, 5, 4], "includesElement__pettifor_number": [80, 49, 61], "includesElement__specific_heat_capacity": [0.897, 0.278, 0.449], "includesElement__vdw_radius": [184.0, 223.0, 204.0], "includesElement__vdw_radius_alvarez": [225.0, 252.0, 244.0], "includesElement__vdw_radius_mm3": [236.0, 254.0, 223.0], "includesElement__vdw_radius_uff": [449.9, 312.4, 291.2], "includesElement__abundance_sea": [0.002, 3e-05], "includesElement__atomic_weight_uncertainty": [7e-07, 0.002], "includesElement__c6_gb": [520.0, 1360.0, 548.0], "includesElement__covalent_radius_bragg": [135.0, 140.0], "includesElement__electronegativity_allen": [9.539, 7.808, 10.64], "includesElement__en_allen": [9.539, 7.808, 10.64], "includesElement__metallic_radius": [125.0, 145.0, 117.0], "includesElement__metallic_radius_c12": [143.0, 160.0, 126.0], "includesElement__thermal_conductivity": [237.0, 22.7, 80.4], "includesElement__vdw_radius_batsanov": [210.0, 230.0, 205.0], "includesElement__c6": [528.0, 482.0], "includesElement__is_monoisotopic": [true], "includesElement__vdw_radius_dreiding": [439.0], "includesElement__vdw_radius_truhlar": [184.0], "includesElement__gas_basicity": [731.1], "includesElement__proton_affinity": [754.0], "formula": ["Al2Fe1Zr6"], "spacegroup": ["189"], "thermalConductivity": [7.81941], "icsd": ["402701"], "band_gap": [0.0], "density": [6.027834], "density_atomic": [20.11459], "deprecated": [false], "efermi": [4.752162], "energy_above_hull": [0.009750137], "energy_per_atom": [-7.774282], "formation_energy_per_atom": [-0.3023509], "homogeneous_poisson": [0.301], "is_gap_direct": [false], "is_magnetic": [false], "is_metal": [true], "is_stable": [false], "nelements": [3], "nsites": [9], "num_magnetic_sites": [0], "num_unique_magnetic_sites": [0], "theoretical": [false], "total_magnetization": [0.0019024], "total_magnetization_normalized_formula_units": [0.0019024], "total_magnetization_normalized_vol": [1.050868e-05], "uncorrected_energy_per_atom": [-18.53502], "universal_anisotropy": [0.003], "volume": [181.0313]}