{"includesElement": ["", "V", "Tc"], "includesElement___series_id": [8], "includesElement__abundance_crust": [120.0], "includesElement__atomic_number": [23, 43], "includesElement__atomic_radius": [135.0], "includesElement__atomic_radius_rahm": [252.0], "includesElement__atomic_volume": [8.35, 8.5], "includesElement__atomic_weight": [50.9415, 97.90721], "includesElement__covalent_radius_cordero": [153.0, 147.0], "includesElement__covalent_radius_pyykko": [134.0, 128.0], "includesElement__covalent_radius_pyykko_double": [112.0, 120.0], "includesElement__covalent_radius_pyykko_triple": [106.0, 110.0], "includesElement__density": [6.0, 11.0], "includesElement__dipole_polarizability": [87.0, 79.0], "includesElement__dipole_polarizability_unc": [10.0], "includesElement__discovery_year": [1830, 1937], "includesElement__electron_affinity": [0.525, 0.55], "includesElement__electronegativity_allred-rochow": [0.0001837826, 0.0002197266], "includesElement__electronegativity_cottrell-sutton": [0.1569295, 0.1677051], "includesElement__electronegativity_ghosh": [0.1273344, 0.1344592], "includesElement__electronegativity_gordy": [0.02462687, 0.028125], "includesElement__electronegativity_mulliken": [3.635594, 3.83469], "includesElement__electronegativity_nagle": [0.3859078, 0.4458174], "includesElement__electronegativity_pauling": [1.63, 2.1], "includesElement__electronegativity_sanderson": [0.4388898, 0.8753613], "includesElement__en_ghosh": [0.1273344, 0.1344592], "includesElement__en_pauling": [1.63, 2.1], "includesElement__evaporation_heat": [460.0, 585.0], "includesElement__fusion_heat": [17.5, 23.8], "includesElement__glawe_number": [54, 59], "includesElement__group_id": [5, 7], "includesElement__heat_of_formation": [515.5, 678.0], "includesElement__is_radioactive": [false, true], "includesElement__lattice_constant": [3.02, 2.74], "includesElement__mendeleev_number": [47, 56], "includesElement__molar_heat_capacity": [24.89], "includesElement__period": [4, 5], "includesElement__pettifor_number": [54, 58], "includesElement__specific_heat_capacity": [0.489], "includesElement__vdw_radius": [207.0, 216.0], "includesElement__vdw_radius_alvarez": [242.0, 244.0], "includesElement__vdw_radius_mm3": [229.0, 236.0], "includesElement__vdw_radius_uff": [314.4, 299.8], "includesElement__abundance_sea": [0.0025], "includesElement__atomic_weight_uncertainty": [0.0001, 3e-05], "includesElement__c6_gb": [955.0, 939.0], "includesElement__electronegativity_allen": [9.063, 8.94], "includesElement__en_allen": [9.063, 8.94], "includesElement__metallic_radius": [122.0, 127.0], "includesElement__metallic_radius_c12": [134.0, 136.0], "includesElement__thermal_conductivity": [30.7, 50.6], "includesElement__vdw_radius_batsanov": [205.0], "includesElement__c6": [832.0], "includesElement__gas_basicity": [836.8], "includesElement__proton_affinity": [859.4], "formula": ["Tc1V1"], "spacegroup": ["221"], "thermalConductivity": [37.8581], "icsd": ["106143"], "band_gap": [0.0], "density": [9.077096], "density_atomic": [13.62347], "deprecated": [false], "efermi": [7.737836], "energy_above_hull": [0.0], "energy_per_atom": [-20.46561], "formation_energy_per_atom": [-0.4384956], "homogeneous_poisson": [0.289], "is_gap_direct": [false], "is_magnetic": [false], "is_metal": [true], "is_stable": [true], "nelements": [2], "nsites": [2], "num_magnetic_sites": [0], "num_unique_magnetic_sites": [0], "theoretical": [false], "total_magnetization": [5.6e-06], "total_magnetization_normalized_formula_units": [5.6e-06], "total_magnetization_normalized_vol": [2.055276e-07], "uncorrected_energy_per_atom": [-20.46561], "universal_anisotropy": [0.307], "volume": [27.24695], "equilibrium_reaction_energy_per_atom": [-0.4384956]}