{"includesElement": ["", "Rh", "Cr"], "includesElement___series_id": [8], "includesElement__abundance_crust": [0.001, 102.0], "includesElement__atomic_number": [45, 24], "includesElement__atomic_radius": [135.0, 140.0], "includesElement__atomic_radius_rahm": [233.0], "includesElement__atomic_volume": [8.3, 7.23], "includesElement__atomic_weight": [102.9055, 51.9961], "includesElement__covalent_radius_cordero": [142.0, 139.0], "includesElement__covalent_radius_pyykko": [125.0, 122.0], "includesElement__covalent_radius_pyykko_double": [110.0, 111.0], "includesElement__covalent_radius_pyykko_triple": [106.0, 103.0], "includesElement__density": [12.4, 7.15], "includesElement__dipole_polarizability": [66.0, 83.0], "includesElement__dipole_polarizability_unc": [10.0, 12.0], "includesElement__discovery_year": [1803, 1797], "includesElement__electron_affinity": [1.137, 0.666], "includesElement__electronegativity_allred-rochow": [0.0002176, 0.0001981994], "includesElement__electronegativity_cottrell-sutton": [0.1649242, 0.1555003], "includesElement__electronegativity_ghosh": [0.1408379, 0.1313053], "includesElement__electronegativity_gordy": [0.0272, 0.02418033], "includesElement__electronegativity_mulliken": [4.29795, 3.716255], "includesElement__electronegativity_nagle": [0.5147142, 0.4165729], "includesElement__electronegativity_pauling": [2.28, 1.66], "includesElement__electronegativity_sanderson": [0.9761915, 0.6017723], "includesElement__en_ghosh": [0.1408379, 0.1313053], "includesElement__en_pauling": [2.28, 1.66], "includesElement__evaporation_heat": [494.0, 342.0], "includesElement__fusion_heat": [21.8, 21.0], "includesElement__glawe_number": [63, 55], "includesElement__group_id": [9, 6], "includesElement__heat_of_formation": [556.0, 397.48], "includesElement__is_radioactive": [false], "includesElement__lattice_constant": [3.8, 2.88], "includesElement__mendeleev_number": [64, 51], "includesElement__molar_heat_capacity": [24.98, 23.35], "includesElement__period": [5, 4], "includesElement__pettifor_number": [66, 57], "includesElement__specific_heat_capacity": [0.243, 0.449], "includesElement__vdw_radius": [210.0, 206.0], "includesElement__vdw_radius_alvarez": [244.0, 245.0], "includesElement__vdw_radius_mm3": [234.0, 225.0], "includesElement__vdw_radius_uff": [292.9, 302.3], "includesElement__atomic_weight_uncertainty": [2e-05, 0.0006], "includesElement__c6_gb": [708.0, 709.0], "includesElement__electronegativity_allen": [9.259, 9.77], "includesElement__en_allen": [9.259, 9.77], "includesElement__metallic_radius": [125.0, 119.0], "includesElement__metallic_radius_c12": [134.0, 128.0], "includesElement__thermal_conductivity": [150.0, 93.9], "includesElement__vdw_radius_batsanov": [200.0, 205.0], "includesElement__is_monoisotopic": [true], "includesElement__gas_basicity": [745.4, 768.4], "includesElement__proton_affinity": [768.0, 791.3], "includesElement__abundance_sea": [0.0003], "includesElement__covalent_radius_bragg": [140.0], "includesElement__c6": [602.0], "formula": ["Cr1Rh3"], "spacegroup": ["221"], "thermalConductivity": [13.6772], "icsd": ["108348"], "band_gap": [0.0], "density": [10.99772], "density_atomic": [13.61594], "deprecated": [false], "efermi": [7.149469], "energy_above_hull": [0.0], "energy_per_atom": [-22.01771], "formation_energy_per_atom": [-0.1472033], "homogeneous_poisson": [0.227], "is_gap_direct": [false], "is_magnetic": [true], "is_metal": [true], "is_stable": [true], "nelements": [2], "nsites": [4], "num_magnetic_sites": [4], "num_unique_magnetic_sites": [2], "theoretical": [false], "total_magnetization": [1.681957], "total_magnetization_normalized_formula_units": [1.681957], "total_magnetization_normalized_vol": [0.03088213], "uncorrected_energy_per_atom": [-22.01771], "universal_anisotropy": [0.332], "volume": [54.46378], "equilibrium_reaction_energy_per_atom": [-0.1472033]}