{"includesElement": ["", "Ga", "Th"], "includesElement___series_id": [7, 10], "includesElement__abundance_crust": [19.0, 9.6], "includesElement__atomic_number": [31, 90], "includesElement__atomic_radius": [130.0, 180.0], "includesElement__atomic_radius_rahm": [233.0, 288.0], "includesElement__atomic_volume": [11.8, 19.8], "includesElement__atomic_weight": [69.723, 232.0377], "includesElement__covalent_radius_cordero": [122.0, 206.0], "includesElement__covalent_radius_pyykko": [124.0, 175.0], "includesElement__covalent_radius_pyykko_double": [117.0, 143.0], "includesElement__covalent_radius_pyykko_triple": [121.0, 136.0], "includesElement__density": [5.91, 11.7], "includesElement__dipole_polarizability": [50.0, 217.0], "includesElement__dipole_polarizability_unc": [3.0, 54.0], "includesElement__discovery_year": [1875, 1828], "includesElement__electron_affinity": [0.43], "includesElement__electronegativity_allred-rochow": [0.0003251821, 0.0001028571], "includesElement__electronegativity_cottrell-sutton": [0.2008048, 0.1341641], "includesElement__electronegativity_ghosh": [0.1723773, 0.10277], "includesElement__electronegativity_gordy": [0.04032258, 0.018], "includesElement__electronegativity_mulliken": [3.214651, 3.15335], "includesElement__electronegativity_nagle": [0.3914868, 0.2641598], "includesElement__electronegativity_pauling": [1.81, 1.3], "includesElement__electronegativity_sanderson": [0.720541, 0.5557019], "includesElement__en_ghosh": [0.1723773, 0.10277], "includesElement__en_pauling": [1.81, 1.3], "includesElement__evaporation_heat": [270.3, 513.7], "includesElement__fusion_heat": [5.59, 16.11], "includesElement__glawe_number": [79, 34], "includesElement__group_id": [13], "includesElement__heat_of_formation": [271.96, 602.0], "includesElement__is_radioactive": [false, true], "includesElement__lattice_constant": [4.51, 5.08], "includesElement__mendeleev_number": [83, 16], "includesElement__molar_heat_capacity": [26.03, 27.32], "includesElement__period": [4, 7], "includesElement__pettifor_number": [81, 47], "includesElement__specific_heat_capacity": [0.373, 0.118], "includesElement__vdw_radius": [187.0, 245.0], "includesElement__vdw_radius_alvarez": [232.0, 293.0], "includesElement__vdw_radius_mm3": [246.0, 274.0], "includesElement__vdw_radius_uff": [438.3, 339.6], "includesElement__abundance_sea": [3e-05, 1e-06], "includesElement__atomic_weight_uncertainty": [0.001, 0.0004], "includesElement__c6_gb": [456.0], "includesElement__electronegativity_allen": [10.39], "includesElement__en_allen": [10.39], "includesElement__metallic_radius": [125.0], "includesElement__metallic_radius_c12": [140.0], "includesElement__thermal_conductivity": [28.1], "includesElement__vdw_radius_batsanov": [210.0, 240.0], "includesElement__c6": [498.0], "includesElement__vdw_radius_dreiding": [439.0], "includesElement__vdw_radius_bondi": [187.0], "formula": ["Ga2Th1"], "spacegroup": ["191"], "thermalConductivity": [9.53787], "icsd": ["103985"], "band_gap": [0.0], "density": [9.265972], "density_atomic": [22.19101], "deprecated": [false], "efermi": [5.768923], "energy_above_hull": [0.005273628], "energy_per_atom": [-32.85996], "formation_energy_per_atom": [-0.7396897], "is_gap_direct": [false], "is_magnetic": [false], "is_metal": [true], "is_stable": [false], "nelements": [2], "nsites": [3], "num_magnetic_sites": [0], "num_unique_magnetic_sites": [0], "theoretical": [false], "total_magnetization": [9e-07], "total_magnetization_normalized_formula_units": [9e-07], "total_magnetization_normalized_vol": [1.351899e-08], "uncorrected_energy_per_atom": [-32.85996], "volume": [66.57302]}