{"includesElement": ["", "Tl", "Ho", "C"], "includesElement___series_id": [7, 9, 1], "includesElement__abundance_crust": [0.85, 1.3, 200.0], "includesElement__atomic_number": [81, 67, 6], "includesElement__atomic_radius": [190.0, 175.0, 70.0], "includesElement__atomic_radius_rahm": [242.0, 273.0, 190.0], "includesElement__atomic_volume": [17.2, 18.7, 5.3], "includesElement__atomic_weight": [204.38, 164.9303, 12.011], "includesElement__covalent_radius_cordero": [145.0, 192.0, 73.0], "includesElement__covalent_radius_pyykko": [144.0, 166.0, 75.0], "includesElement__covalent_radius_pyykko_double": [142.0, 133.0, 67.0], "includesElement__covalent_radius_pyykko_triple": [150.0, 60.0], "includesElement__density": [11.8, 8.8, 2.2], "includesElement__dipole_polarizability": [50.0, 156.0, 11.3], "includesElement__dipole_polarizability_unc": [2.0, 10.0, 0.2], "includesElement__discovery_year": [1861, 1878], "includesElement__electron_affinity": [0.377, 1.262119], "includesElement__electronegativity_allred-rochow": [0.0002411265, 0.0001034258, 0.0005777778], "includesElement__electronegativity_cottrell-sutton": [0.186339, 0.1310293, 0.2081666], "includesElement__electronegativity_ghosh": [0.173447, 0.207795, 0.224776], "includesElement__electronegativity_gordy": [0.03472222, 0.01716867, 0.04333333], "includesElement__electronegativity_mulliken": [3.242643, 3.01075, 6.261208], "includesElement__electronegativity_nagle": [0.3914868, 0.4367902, 0.7073926], "includesElement__electronegativity_pauling": [1.8, 1.23, 2.55], "includesElement__electronegativity_sanderson": [0.9245096, 0.5434919, 0.427525], "includesElement__en_ghosh": [0.173447, 0.207795, 0.224776], "includesElement__en_pauling": [1.8, 1.23, 2.55], "includesElement__evaporation_heat": [162.4, 301.0], "includesElement__fusion_heat": [4.31], "includesElement__glawe_number": [81, 23, 87], "includesElement__group_id": [13, 14], "includesElement__heat_of_formation": [182.2, 300.6, 716.87], "includesElement__is_radioactive": [false], "includesElement__lattice_constant": [3.46, 3.58, 3.57], "includesElement__mendeleev_number": [85, 33, 87], "includesElement__molar_heat_capacity": [26.32, 27.15, 8.517], "includesElement__period": [6, 2], "includesElement__pettifor_number": [78, 24, 95], "includesElement__specific_heat_capacity": [0.129, 0.165, 0.709], "includesElement__vdw_radius": [196.0, 230.0, 170.0], "includesElement__vdw_radius_alvarez": [247.0, 281.0, 177.0], "includesElement__vdw_radius_mm3": [259.0, 267.0, 204.0], "includesElement__vdw_radius_uff": [434.7, 340.9, 385.1], "includesElement__abundance_sea": [1.9e-05, 2.2e-07, 28.0], "includesElement__c6_gb": [509.0, 2280.0, 47.9], "includesElement__covalent_radius_bragg": [190.0, 77.0], "includesElement__metallic_radius": [144.0], "includesElement__metallic_radius_c12": [160.0, 86.0], "includesElement__thermal_conductivity": [46.1, 1.59], "includesElement__vdw_radius_batsanov": [220.0, 170.0], "includesElement__vdw_radius_bondi": [196.0, 170.0], "includesElement__atomic_weight_uncertainty": [2e-05], "includesElement__is_monoisotopic": [true], "includesElement__electronegativity_allen": [15.05], "includesElement__en_allen": [15.05], "includesElement__c6": [46.6], "includesElement__vdw_radius_dreiding": [389.83], "includesElement__vdw_radius_rt": [177.0], "formula": ["C1Ho3Tl1"], "spacegroup": ["221"], "thermalConductivity": [1.13863], "icsd": ["77035"], "band_gap": [0.0], "density": [6.800822], "density_atomic": [34.72964], "deprecated": [false], "efermi": [2.162887], "energy_above_hull": [1.928731], "energy_per_atom": [-3.444996], "formation_energy_per_atom": [1.633639], "homogeneous_poisson": [0.363], "is_gap_direct": [false], "is_magnetic": [false], "is_metal": [true], "is_stable": [false], "nelements": [3], "nsites": [5], "num_magnetic_sites": [0], "num_unique_magnetic_sites": [0], "theoretical": [false], "total_magnetization": [0.0008416], "total_magnetization_normalized_formula_units": [0.0008416], "total_magnetization_normalized_vol": [4.846581e-06], "uncorrected_energy_per_atom": [-3.444996], "universal_anisotropy": [55.154], "volume": [173.6482]}