{"includesElement": ["", "Ca", "Pb", "Sr"], "includesElement___series_id": [4, 7], "includesElement__abundance_crust": [41500.0, 14.0, 370.0], "includesElement__atomic_number": [20, 82, 38], "includesElement__atomic_radius": [180.0, 200.0], "includesElement__atomic_radius_rahm": [270.0, 249.0, 279.0], "includesElement__atomic_volume": [29.9, 18.3, 33.7], "includesElement__atomic_weight": [40.078, 207.2, 87.62], "includesElement__covalent_radius_cordero": [176.0, 146.0, 195.0], "includesElement__covalent_radius_pyykko": [171.0, 144.0, 185.0], "includesElement__covalent_radius_pyykko_double": [147.0, 135.0, 157.0], "includesElement__covalent_radius_pyykko_triple": [133.0, 137.0, 139.0], "includesElement__density": [1.54, 11.3, 2.64], "includesElement__dipole_polarizability": [160.8, 47.0, 197.2], "includesElement__dipole_polarizability_unc": [4.0, 3.0, 0.2], "includesElement__discovery_year": [1808, 1790], "includesElement__electron_affinity": [0.02455, 0.3567432, 0.048], "includesElement__electronegativity_allred-rochow": [9.746589e-05, 0.000272473, 8.327246e-05], "includesElement__electronegativity_cottrell-sutton": [0.1290994, 0.1980811, 0.1241185], "includesElement__electronegativity_ghosh": [0.1154119, 0.177911, 0.1185082], "includesElement__electronegativity_gordy": [0.01666667, 0.03923611, 0.01540541], "includesElement__electronegativity_mulliken": [3.068853, 3.886711, 2.871434], "includesElement__electronegativity_nagle": [0.2316939, 0.4398663, 0.2164584], "includesElement__electronegativity_pauling": [1.0, 1.8, 0.95], "includesElement__electronegativity_sanderson": [0.1901577, 0.9313226, 0.2631786], "includesElement__en_ghosh": [0.1154119, 0.177911, 0.1185082], "includesElement__en_pauling": [1.0, 1.8, 0.95], "includesElement__evaporation_heat": [153.6, 177.8, 144.0], "includesElement__fusion_heat": [9.2, 4.77], "includesElement__glawe_number": [16, 82, 15], "includesElement__group_id": [2, 14], "includesElement__heat_of_formation": [177.8, 195.2, 164.0], "includesElement__is_radioactive": [false], "includesElement__lattice_constant": [5.58, 4.95, 6.08], "includesElement__mendeleev_number": [7, 91, 8], "includesElement__molar_heat_capacity": [25.929, 26.84, 26.79], "includesElement__period": [4, 6, 5], "includesElement__pettifor_number": [16, 82, 15], "includesElement__specific_heat_capacity": [0.647, 0.13, 0.306], "includesElement__vdw_radius": [231.0, 202.0, 249.0], "includesElement__vdw_radius_alvarez": [262.0, 260.0, 284.0], "includesElement__vdw_radius_mm3": [281.0, 274.0, 300.0], "includesElement__vdw_radius_uff": [339.9, 429.7, 364.1], "includesElement__abundance_sea": [412.0, 3e-05, 7.9], "includesElement__atomic_weight_uncertainty": [0.004, 0.1, 0.01], "includesElement__c6_gb": [2230.0, 534.0, 3230.0], "includesElement__covalent_radius_bragg": [170.0, 195.0], "includesElement__electronegativity_allen": [6.113, 10.97, 5.695], "includesElement__en_allen": [6.113, 10.97, 5.695], "includesElement__metallic_radius": [174.0, 150.0, 191.0], "includesElement__metallic_radius_c12": [197.0, 170.0, 215.0], "includesElement__vdw_radius_batsanov": [240.0, 230.0, 255.0], "includesElement__c6": [2163.0, 3175.0], "includesElement__vdw_radius_truhlar": [231.0, 249.0], "includesElement__thermal_conductivity": [35.3], "includesElement__vdw_radius_bondi": [202.0], "formula": ["Ca4Pb4Sr4"], "spacegroup": ["62"], "thermalConductivity": [1.20689], "icsd": ["172008"], "band_gap": [0.2678], "density": [5.176574], "density_atomic": [35.80948], "deprecated": [false], "efermi": [3.5715], "energy_above_hull": [0.0], "energy_per_atom": [-3.051865], "formation_energy_per_atom": [-0.5816396], "is_gap_direct": [false], "is_magnetic": [false], "is_metal": [false], "is_stable": [true], "nelements": [3], "nsites": [12], "num_magnetic_sites": [0], "num_unique_magnetic_sites": [0], "theoretical": [false], "total_magnetization": [0.0], "total_magnetization_normalized_formula_units": [0.0], "total_magnetization_normalized_vol": [0.0], "uncorrected_energy_per_atom": [-26.89857], "volume": [429.7137], "cbm": [3.7138], "equilibrium_reaction_energy_per_atom": [-0.03694273], "vbm": [3.446]}