{"includesElement": ["Sc", "Co", "Te"], "includesElement___series_id": [8, 5], "includesElement__abundance_crust": [22.0, 25.0, 0.001], "includesElement__atomic_number": [21, 27, 52], "includesElement__atomic_radius": [160.0, 135.0, 140.0], "includesElement__atomic_radius_rahm": [263.0, 233.0, 242.0], "includesElement__atomic_volume": [15.0, 6.7, 20.5], "includesElement__atomic_weight": [44.95591, 58.93319, 127.6], "includesElement__covalent_radius_cordero": [170.0, 138.0], "includesElement__covalent_radius_pyykko": [148.0, 111.0, 136.0], "includesElement__covalent_radius_pyykko_double": [116.0, 103.0, 128.0], "includesElement__covalent_radius_pyykko_triple": [114.0, 96.0, 121.0], "includesElement__density": [2.99, 8.86, 6.232], "includesElement__dipole_polarizability": [97.0, 55.0, 38.0], "includesElement__dipole_polarizability_unc": [10.0, 4.0], "includesElement__discovery_year": [1879, 1739, 1782], "includesElement__electron_affinity": [0.188, 0.6622565, 1.970876], "includesElement__electronegativity_allred-rochow": [0.0001369613, 0.0003165327, 0.0003757569], "includesElement__electronegativity_cottrell-sutton": [0.1423737, 0.1874437, 0.2260596], "includesElement__electronegativity_ghosh": [0.1193833, 0.1432363, 0.2056992], "includesElement__electronegativity_gordy": [0.02027027, 0.03513514, 0.05110294], "includesElement__electronegativity_mulliken": [3.374745, 4.271633, 5.490268], "includesElement__electronegativity_nagle": [0.3138941, 0.5469655, 0.5404919], "includesElement__electronegativity_pauling": [1.36, 1.88, 2.1], "includesElement__electronegativity_sanderson": [0.3038674, 0.8832424, 0.8622506], "includesElement__en_ghosh": [0.1193833, 0.1432363, 0.2056992], "includesElement__en_pauling": [1.36, 1.88, 2.1], "includesElement__evaporation_heat": [332.7, 389.1, 49.8], "includesElement__fusion_heat": [15.8, 15.48, 17.91], "includesElement__glawe_number": [48, 70, 94], "includesElement__group_id": [3, 9, 16], "includesElement__heat_of_formation": [377.8, 426.7, 196.6], "includesElement__is_radioactive": [false], "includesElement__lattice_constant": [3.31, 2.51, 4.45], "includesElement__mendeleev_number": [11, 63, 102], "includesElement__molar_heat_capacity": [25.52, 24.81, 25.73], "includesElement__period": [4, 5], "includesElement__pettifor_number": [20, 64, 92], "includesElement__specific_heat_capacity": [0.568, 0.421, 0.202], "includesElement__vdw_radius": [215.0, 200.0, 206.0], "includesElement__vdw_radius_alvarez": [258.0, 240.0, 199.0], "includesElement__vdw_radius_mm3": [261.0, 223.0, 244.0], "includesElement__vdw_radius_uff": [329.5, 287.2, 447.0], "includesElement__abundance_sea": [6e-07, 2e-05], "includesElement__atomic_weight_uncertainty": [5e-06, 4e-06, 0.03], "includesElement__c6_gb": [1570.0, 461.0, 471.0], "includesElement__electronegativity_allen": [7.042, 10.86, 12.76], "includesElement__en_allen": [7.042, 10.86, 12.76], "includesElement__metallic_radius": [144.0, 116.0, 137.0], "includesElement__metallic_radius_c12": [162.0, 125.0, 160.0], "includesElement__thermal_conductivity": [15.8, 100.0, 14.3], "includesElement__vdw_radius_batsanov": [230.0, 200.0, 210.0], "includesElement__c6": [1383.0, 408.0, 445.0], "includesElement__is_monoisotopic": [true], "includesElement__gas_basicity": [892.0, 719.8], "includesElement__proton_affinity": [914.0, 742.7], "includesElement__covalent_radius_bragg": [137.0, 133.0], "includesElement__vdw_radius_dreiding": [423.0], "includesElement__vdw_radius_bondi": [206.0], "formula": ["ScCoTe"], "mp_id": ["961678"], "thermalConductivity": [12.7], "band_gap": [0.8678], "density": [7.032943], "density_atomic": [18.21886], "deprecated": [false], "efermi": [7.403354], "energy_above_hull": [0.008902988], "energy_per_atom": [-6.462208], "formation_energy_per_atom": [-0.9258111], "homogeneous_poisson": [0.25], "is_gap_direct": [false], "is_magnetic": [false], "is_metal": [false], "is_stable": [false], "nelements": [3], "nsites": [3], "num_magnetic_sites": [0], "num_unique_magnetic_sites": [0], "theoretical": [true], "total_magnetization": [0.0], "total_magnetization_normalized_formula_units": [0.0], "total_magnetization_normalized_vol": [0.0], "uncorrected_energy_per_atom": [-17.46348], "universal_anisotropy": [0.103], "volume": [54.65659], "cbm": [8.1175], "vbm": [7.2497]}