{"includesElement": ["", "V", "Ir"], "includesElement___series_id": [8], "includesElement__abundance_crust": [120.0, 0.001], "includesElement__atomic_number": [23, 77], "includesElement__atomic_radius": [135.0], "includesElement__atomic_radius_rahm": [252.0, 240.0], "includesElement__atomic_volume": [8.35, 8.54], "includesElement__atomic_weight": [50.9415, 192.217], "includesElement__covalent_radius_cordero": [153.0, 141.0], "includesElement__covalent_radius_pyykko": [134.0, 122.0], "includesElement__covalent_radius_pyykko_double": [112.0, 115.0], "includesElement__covalent_radius_pyykko_triple": [106.0, 107.0], "includesElement__density": [6.0, 22.5622], "includesElement__dipole_polarizability": [87.0, 54.0], "includesElement__dipole_polarizability_unc": [10.0, 7.0], "includesElement__discovery_year": [1830, 1804], "includesElement__electron_affinity": [0.525, 1.5638], "includesElement__electronegativity_allred-rochow": [0.0001837826, 0.0002620263], "includesElement__electronegativity_cottrell-sutton": [0.1569295, 0.1787938], "includesElement__electronegativity_ghosh": [0.1273344, 0.25106], "includesElement__electronegativity_gordy": [0.02462687, 0.03196721], "includesElement__electronegativity_mulliken": [3.635594, 5.26541], "includesElement__electronegativity_nagle": [0.3859078, 0.5503212], "includesElement__electronegativity_pauling": [1.63, 2.2], "includesElement__electronegativity_sanderson": [0.4388898, 1.475998], "includesElement__en_ghosh": [0.1273344, 0.25106], "includesElement__en_pauling": [1.63, 2.2], "includesElement__evaporation_heat": [460.0, 604.0], "includesElement__fusion_heat": [17.5, 27.61], "includesElement__glawe_number": [54, 62], "includesElement__group_id": [5, 9], "includesElement__heat_of_formation": [515.5, 669.0], "includesElement__is_radioactive": [false], "includesElement__lattice_constant": [3.02, 3.84], "includesElement__mendeleev_number": [47, 65], "includesElement__molar_heat_capacity": [24.89, 25.1], "includesElement__period": [4, 6], "includesElement__pettifor_number": [54, 65], "includesElement__specific_heat_capacity": [0.489, 0.131], "includesElement__vdw_radius": [207.0, 213.0], "includesElement__vdw_radius_alvarez": [242.0, 241.0], "includesElement__vdw_radius_mm3": [229.0, 236.0], "includesElement__vdw_radius_uff": [314.4, 284.0], "includesElement__abundance_sea": [0.0025], "includesElement__atomic_weight_uncertainty": [0.0001, 0.003], "includesElement__c6_gb": [955.0, 522.0], "includesElement__electronegativity_allen": [9.063, 9.96], "includesElement__en_allen": [9.063, 9.96], "includesElement__metallic_radius": [122.0, 127.0], "includesElement__metallic_radius_c12": [134.0, 136.0], "includesElement__thermal_conductivity": [30.7, 147.0], "includesElement__vdw_radius_batsanov": [205.0, 200.0], "includesElement__c6": [832.0], "includesElement__gas_basicity": [836.8], "includesElement__proton_affinity": [859.4], "formula": ["Ir3V1"], "spacegroup": ["221"], "thermalConductivity": [27.5918], "icsd": ["104594"], "band_gap": [0.0], "density": [18.74231], "density_atomic": [13.90093], "deprecated": [false], "efermi": [9.3723], "energy_above_hull": [0.01595717], "energy_per_atom": [-43.33398], "formation_energy_per_atom": [-0.5420716], "homogeneous_poisson": [0.221], "is_gap_direct": [false], "is_magnetic": [false], "is_metal": [true], "is_stable": [false], "nelements": [2], "nsites": [4], "num_magnetic_sites": [0], "num_unique_magnetic_sites": [0], "theoretical": [false], "total_magnetization": [1e-07], "total_magnetization_normalized_formula_units": [1e-07], "total_magnetization_normalized_vol": [1.798441e-09], "uncorrected_energy_per_atom": [-43.33398], "universal_anisotropy": [0.229], "volume": [55.60371]}