{"includesElement": ["", "Zr", "Au"], "includesElement___series_id": [8], "includesElement__abundance_crust": [165.0, 0.004], "includesElement__atomic_number": [40, 79], "includesElement__atomic_radius": [155.0, 135.0], "includesElement__atomic_radius_rahm": [269.0, 226.0], "includesElement__atomic_volume": [14.1, 10.2], "includesElement__atomic_weight": [91.224, 196.9666], "includesElement__covalent_radius_cordero": [175.0, 136.0], "includesElement__covalent_radius_pyykko": [154.0, 124.0], "includesElement__covalent_radius_pyykko_double": [127.0, 121.0], "includesElement__covalent_radius_pyykko_triple": [121.0, 123.0], "includesElement__density": [6.52, 19.3], "includesElement__dipole_polarizability": [112.0, 36.0], "includesElement__dipole_polarizability_unc": [13.0, 3.0], "includesElement__discovery_year": [1789], "includesElement__electron_affinity": [0.426, 2.30863], "includesElement__electronegativity_allred-rochow": [0.0001328217, 0.0002406348], "includesElement__electronegativity_cottrell-sutton": [0.1430194, 0.1727388], "includesElement__electronegativity_ghosh": [0.1248887, 0.26137], "includesElement__electronegativity_gordy": [0.02045455, 0.02983871], "includesElement__electronegativity_mulliken": [3.52995, 5.767091], "includesElement__electronegativity_nagle": [0.3293169, 0.67354], "includesElement__electronegativity_pauling": [1.33, 2.4], "includesElement__electronegativity_sanderson": [0.4744467, 1.426701], "includesElement__en_ghosh": [0.1248887, 0.26137], "includesElement__en_pauling": [1.33, 2.4], "includesElement__evaporation_heat": [567.0, 340.0], "includesElement__fusion_heat": [19.2, 12.68], "includesElement__glawe_number": [49, 66], "includesElement__group_id": [4, 11], "includesElement__heat_of_formation": [610.0, 368.2], "includesElement__is_radioactive": [false], "includesElement__lattice_constant": [3.23, 4.08], "includesElement__mendeleev_number": [44, 73], "includesElement__molar_heat_capacity": [25.36, 25.418], "includesElement__period": [5, 6], "includesElement__pettifor_number": [49, 70], "includesElement__specific_heat_capacity": [0.278, 0.129], "includesElement__vdw_radius": [223.0, 214.0], "includesElement__vdw_radius_alvarez": [252.0, 232.0], "includesElement__vdw_radius_mm3": [254.0, 243.0], "includesElement__vdw_radius_uff": [312.4, 329.3], "includesElement__abundance_sea": [3e-05, 4e-06], "includesElement__atomic_weight_uncertainty": [0.002, 5e-06], "includesElement__c6_gb": [1360.0, 427.0], "includesElement__electronegativity_allen": [7.808, 11.33], "includesElement__en_allen": [7.808, 11.33], "includesElement__metallic_radius": [145.0, 134.0], "includesElement__metallic_radius_c12": [160.0, 144.0], "includesElement__thermal_conductivity": [22.7, 318.0], "includesElement__vdw_radius_batsanov": [230.0, 210.0], "includesElement__is_monoisotopic": [true], "formula": ["Au16Zr4"], "spacegroup": ["62"], "thermalConductivity": [0.663948], "icsd": ["58631"], "band_gap": [0.0], "density": [16.1307], "density_atomic": [18.0992], "deprecated": [false], "efermi": [5.573361], "energy_above_hull": [0.0], "energy_per_atom": [-45.49381], "formation_energy_per_atom": [-0.4758802], "is_gap_direct": [false], "is_magnetic": [false], "is_metal": [true], "is_stable": [true], "nelements": [2], "nsites": [20], "num_magnetic_sites": [0], "num_unique_magnetic_sites": [0], "theoretical": [false], "total_magnetization": [0.0], "total_magnetization_normalized_formula_units": [0.0], "total_magnetization_normalized_vol": [0.0], "uncorrected_energy_per_atom": [-45.49381], "volume": [361.984], "equilibrium_reaction_energy_per_atom": [-0.02619594]}