{"includesElement": ["", "Sn", "Er", "Pd"], "includesElement___series_id": [7, 9, 8], "includesElement__abundance_crust": [2.3, 3.5, 0.015], "includesElement__atomic_number": [50, 68, 46], "includesElement__atomic_radius": [145.0, 175.0, 140.0], "includesElement__atomic_radius_rahm": [248.0, 272.0, 215.0], "includesElement__atomic_volume": [16.3, 18.4, 8.9], "includesElement__atomic_weight": [118.71, 167.259, 106.42], "includesElement__covalent_radius_cordero": [139.0, 189.0], "includesElement__covalent_radius_pyykko": [140.0, 165.0, 120.0], "includesElement__covalent_radius_pyykko_double": [130.0, 133.0, 117.0], "includesElement__covalent_radius_pyykko_triple": [132.0, 112.0], "includesElement__density": [7.287, 9.07, 12.0], "includesElement__dipole_polarizability": [53.0, 150.0, 26.14], "includesElement__dipole_polarizability_unc": [6.0, 10.0, 0.1], "includesElement__electron_affinity": [1.112067, 0.562], "includesElement__electronegativity_allred-rochow": [0.0002882653, 0.0001046832, 0.0004756944], "includesElement__electronegativity_cottrell-sutton": [0.2008909, 0.1314257, 0.2389212], "includesElement__electronegativity_ghosh": [0.178052, 0.212261, 0.1440276], "includesElement__electronegativity_gordy": [0.04035714, 0.01727273, 0.05708333], "includesElement__electronegativity_mulliken": [4.227992, 3.05385, 4.44943], "includesElement__electronegativity_nagle": [0.4225986, 0.4536061, 0.7259357], "includesElement__electronegativity_pauling": [1.96, 1.24, 2.2], "includesElement__electronegativity_sanderson": [0.7622797, 0.5576573, 1.124263], "includesElement__en_ghosh": [0.178052, 0.212261, 0.1440276], "includesElement__en_pauling": [1.96, 1.24, 2.2], "includesElement__evaporation_heat": [296.0, 317.0, 372.4], "includesElement__fusion_heat": [7.07, 17.24], "includesElement__glawe_number": [83, 22, 65], "includesElement__group_id": [14, 10], "includesElement__heat_of_formation": [301.2, 316.4, 376.6], "includesElement__is_radioactive": [false], "includesElement__lattice_constant": [5.82, 3.56, 3.89], "includesElement__mendeleev_number": [90, 35, 68], "includesElement__molar_heat_capacity": [26.99, 28.12, 25.98], "includesElement__period": [5, 6], "includesElement__pettifor_number": [83, 23, 69], "includesElement__specific_heat_capacity": [0.227, 0.168, 0.246], "includesElement__vdw_radius": [217.0, 229.0, 210.0], "includesElement__vdw_radius_alvarez": [242.0, 283.0, 215.0], "includesElement__vdw_radius_mm3": [259.0, 267.0, 237.0], "includesElement__vdw_radius_uff": [439.2, 339.1, 289.9], "includesElement__abundance_sea": [4e-06, 8.7e-07], "includesElement__atomic_weight_uncertainty": [0.007, 0.003, 0.01], "includesElement__c6_gb": [715.0, 2150.0, 628.0], "includesElement__covalent_radius_bragg": [140.0], "includesElement__electronegativity_allen": [10.79, 9.402], "includesElement__en_allen": [10.79, 9.402], "includesElement__metallic_radius": [142.0, 128.0], "includesElement__metallic_radius_c12": [163.0, 137.0], "includesElement__thermal_conductivity": [66.8, 71.8], "includesElement__vdw_radius_batsanov": [225.0, 205.0], "includesElement__c6": [659.0], "includesElement__vdw_radius_dreiding": [447.0], "includesElement__vdw_radius_bondi": [217.0], "includesElement__discovery_year": [1843, 1803], "includesElement__gas_basicity": [673.4], "includesElement__proton_affinity": [696.0], "formula": ["Er1Pd2Sn1"], "spacegroup": ["225"], "thermalConductivity": [1.98222], "icsd": ["103283"], "band_gap": [0.0], "density": [10.97262], "density_atomic": [18.87179], "deprecated": [false], "efermi": [6.509769], "energy_above_hull": [0.0], "energy_per_atom": [-5.626152], "formation_energy_per_atom": [-0.8918885], "is_gap_direct": [false], "is_magnetic": [false], "is_metal": [true], "is_stable": [true], "nelements": [3], "nsites": [4], "num_magnetic_sites": [0], "num_unique_magnetic_sites": [0], "theoretical": [false], "total_magnetization": [5.5e-06], "total_magnetization_normalized_formula_units": [5.5e-06], "total_magnetization_normalized_vol": [7.286008e-08], "uncorrected_energy_per_atom": [-27.0565], "volume": [75.48715], "equilibrium_reaction_energy_per_atom": [-0.03181866]}