{"includesElement": ["", "Hf", "W"], "includesElement___series_id": [8], "includesElement__abundance_crust": [3.0, 1.25], "includesElement__atomic_number": [72, 74], "includesElement__atomic_radius": [155.0, 135.0], "includesElement__atomic_radius_rahm": [264.0, 253.0], "includesElement__atomic_volume": [13.6, 9.53], "includesElement__atomic_weight": [178.49, 183.84], "includesElement__covalent_radius_cordero": [175.0, 162.0], "includesElement__covalent_radius_pyykko": [152.0, 137.0], "includesElement__covalent_radius_pyykko_double": [128.0, 120.0], "includesElement__covalent_radius_pyykko_triple": [122.0, 115.0], "includesElement__density": [13.3, 19.3], "includesElement__dipole_polarizability": [103.0, 68.0], "includesElement__dipole_polarizability_unc": [6.0, 15.0], "includesElement__discovery_year": [1923, 1783], "includesElement__electron_affinity": [0.014, 0.81626], "includesElement__electronegativity_allred-rochow": [0.00013634, 0.0001838137], "includesElement__electronegativity_cottrell-sutton": [0.1439572, 0.1586899], "includesElement__electronegativity_ghosh": [0.229987, 0.2390504], "includesElement__electronegativity_gordy": [0.02072368, 0.02518248], "includesElement__electronegativity_mulliken": [3.419535, 4.340145], "includesElement__electronegativity_nagle": [0.3386421, 0.4451921], "includesElement__electronegativity_pauling": [1.3, 1.7], "includesElement__electronegativity_sanderson": [0.7352125, 1.019283], "includesElement__en_ghosh": [0.229987, 0.2390504], "includesElement__en_pauling": [1.3, 1.7], "includesElement__evaporation_heat": [575.0, 824.0], "includesElement__fusion_heat": [25.1, 35.0], "includesElement__glawe_number": [50, 57], "includesElement__group_id": [4, 6], "includesElement__heat_of_formation": [618.4, 851.0], "includesElement__is_radioactive": [false], "includesElement__lattice_constant": [3.2, 3.16], "includesElement__mendeleev_number": [45, 53], "includesElement__molar_heat_capacity": [25.73, 24.27], "includesElement__period": [6], "includesElement__pettifor_number": [50, 56], "includesElement__specific_heat_capacity": [0.144, 0.132], "includesElement__vdw_radius": [223.0, 218.0], "includesElement__vdw_radius_alvarez": [263.0, 257.0], "includesElement__vdw_radius_mm3": [253.0, 239.0], "includesElement__vdw_radius_uff": [314.1, 309.6], "includesElement__abundance_sea": [7e-06, 0.0001], "includesElement__atomic_weight_uncertainty": [0.02, 0.01], "includesElement__c6_gb": [1040.0, 757.0], "includesElement__electronegativity_allen": [6.83, 8.67], "includesElement__en_allen": [6.83, 8.67], "includesElement__metallic_radius": [144.0, 130.0], "includesElement__metallic_radius_c12": [159.0, 139.0], "includesElement__thermal_conductivity": [23.0, 173.0], "includesElement__vdw_radius_batsanov": [225.0, 210.0], "formula": ["Hf2W4"], "spacegroup": ["227"], "thermalConductivity": [12.0792], "icsd": ["104289"], "band_gap": [0.0], "density": [16.60123], "density_atomic": [18.21023], "deprecated": [false], "efermi": [5.639534], "energy_above_hull": [0.0], "energy_per_atom": [-49.46445], "formation_energy_per_atom": [-0.1687825], "homogeneous_poisson": [0.314], "is_gap_direct": [false], "is_magnetic": [false], "is_metal": [true], "is_stable": [true], "nelements": [2], "nsites": [6], "num_magnetic_sites": [0], "num_unique_magnetic_sites": [0], "theoretical": [false], "total_magnetization": [1.8e-06], "total_magnetization_normalized_formula_units": [9e-07], "total_magnetization_normalized_vol": [1.647425e-08], "uncorrected_energy_per_atom": [-49.46445], "universal_anisotropy": [0.083], "volume": [109.2614], "equilibrium_reaction_energy_per_atom": [-0.1687825]}