{"includesElement": ["", "F", "Y"], "includesElement___series_id": [6, 8], "includesElement__abundance_crust": [585.0, 33.0], "includesElement__atomic_number": [9, 39], "includesElement__atomic_radius": [50.0, 180.0], "includesElement__atomic_radius_rahm": [163.0, 274.0], "includesElement__atomic_volume": [17.1, 19.8], "includesElement__atomic_weight": [18.9984, 88.90584], "includesElement__covalent_radius_cordero": [57.0, 190.0], "includesElement__covalent_radius_pyykko": [64.0, 163.0], "includesElement__covalent_radius_pyykko_double": [59.0, 130.0], "includesElement__covalent_radius_pyykko_triple": [53.0, 124.0], "includesElement__density": [0.001553, 4.47], "includesElement__dipole_polarizability": [3.74, 162.0], "includesElement__dipole_polarizability_unc": [0.08, 12.0], "includesElement__discovery_year": [1886, 1789], "includesElement__electron_affinity": [3.40119, 0.307], "includesElement__electronegativity_allred-rochow": [0.001269531, 0.0001129135], "includesElement__electronegativity_cottrell-sutton": [0.2850439, 0.1356647], "includesElement__electronegativity_ghosh": [0.344443, 0.1216986], "includesElement__electronegativity_gordy": [0.08125, 0.01840491], "includesElement__electronegativity_mulliken": [10.412, 3.26213], "includesElement__electronegativity_nagle": [1.232373, 0.2645668], "includesElement__electronegativity_pauling": [3.98, 1.22], "includesElement__electronegativity_sanderson": [1.017681, 0.3923941], "includesElement__en_ghosh": [0.344443, 0.1216986], "includesElement__en_pauling": [3.98, 1.22], "includesElement__evaporation_heat": [6.54, 367.0], "includesElement__fusion_heat": [0.51, 11.5], "includesElement__glawe_number": [102, 21], "includesElement__group_id": [17, 3], "includesElement__heat_of_formation": [79.335, 424.7], "includesElement__is_radioactive": [false], "includesElement__mendeleev_number": [106, 12], "includesElement__molar_heat_capacity": [31.304, 26.53], "includesElement__period": [2, 5], "includesElement__pettifor_number": [102, 19], "includesElement__specific_heat_capacity": [0.824, 0.298], "includesElement__vdw_radius": [147.0, 232.0], "includesElement__vdw_radius_alvarez": [146.0, 275.0], "includesElement__vdw_radius_mm3": [171.0, 271.0], "includesElement__vdw_radius_uff": [336.4, 334.5], "includesElement__abundance_sea": [1.3, 1.3e-05], "includesElement__atomic_weight_uncertainty": [6e-09, 2e-05], "includesElement__c6_gb": [10.2, 2600.0], "includesElement__covalent_radius_bragg": [67.0], "includesElement__electronegativity_allen": [24.8, 6.631], "includesElement__en_allen": [24.8, 6.631], "includesElement__thermal_conductivity": [0.028], "includesElement__vdw_radius_batsanov": [150.0, 240.0], "includesElement__c6": [9.52], "includesElement__is_monoisotopic": [true], "includesElement__vdw_radius_dreiding": [347.2], "includesElement__gas_basicity": [315.1, 945.9], "includesElement__proton_affinity": [340.1, 967.0], "includesElement__vdw_radius_bondi": [147.0], "includesElement__vdw_radius_rt": [146.0], "includesElement__lattice_constant": [3.65], "includesElement__metallic_radius": [162.0], "includesElement__metallic_radius_c12": [180.0], "formula": ["F9Y3"], "spacegroup": ["221"], "thermalConductivity": [4.35946], "icsd": ["15961"], "band_gap": [5.6173], "density": [4.653596], "density_atomic": [13.01544], "deprecated": [false], "efermi": [0.2430924], "energy_above_hull": [0.2004715], "energy_per_atom": [-11.69148], "formation_energy_per_atom": [-4.270343], "homogeneous_poisson": [0.288], "is_gap_direct": [false], "is_magnetic": [false], "is_metal": [false], "is_stable": [false], "nelements": [2], "nsites": [12], "num_magnetic_sites": [0], "num_unique_magnetic_sites": [0], "theoretical": [false], "total_magnetization": [9.18e-05], "total_magnetization_normalized_formula_units": [3.06e-05], "total_magnetization_normalized_vol": [5.877634e-07], "uncorrected_energy_per_atom": [-6.93123], "universal_anisotropy": [0.001], "volume": [156.1853], "cbm": [5.7559], "vbm": [0.1386]}