{"includesElement": ["", "Ge", "Ta"], "includesElement___series_id": [5, 8], "includesElement__abundance_crust": [1.5, 2.0], "includesElement__atomic_number": [32, 73], "includesElement__atomic_radius": [125.0, 145.0], "includesElement__atomic_radius_rahm": [234.0, 258.0], "includesElement__atomic_volume": [13.6, 10.9], "includesElement__atomic_weight": [72.63, 180.9479], "includesElement__covalent_radius_cordero": [120.0, 170.0], "includesElement__covalent_radius_pyykko": [121.0, 146.0], "includesElement__covalent_radius_pyykko_double": [111.0, 126.0], "includesElement__covalent_radius_pyykko_triple": [114.0, 119.0], "includesElement__density": [5.3234, 16.4], "includesElement__dipole_polarizability": [40.0, 74.0], "includesElement__dipole_polarizability_unc": [1.0, 20.0], "includesElement__discovery_year": [1886, 1802], "includesElement__electron_affinity": [1.232712, 0.322], "includesElement__electronegativity_allred-rochow": [0.0003859026, 0.0001548133], "includesElement__electronegativity_cottrell-sutton": [0.2160884, 0.1503421], "includesElement__electronegativity_ghosh": [0.1895892, 0.234581], "includesElement__electronegativity_gordy": [0.04669421, 0.02260274], "includesElement__electronegativity_mulliken": [4.566073, 3.935785], "includesElement__electronegativity_nagle": [0.4641589, 0.4072985], "includesElement__electronegativity_pauling": [2.01, 1.5], "includesElement__electronegativity_sanderson": [0.8001471, 0.8358832], "includesElement__en_ghosh": [0.1895892, 0.234581], "includesElement__en_pauling": [2.01, 1.5], "includesElement__evaporation_heat": [328.0, 758.0], "includesElement__fusion_heat": [36.8, 24.7], "includesElement__glawe_number": [84, 52], "includesElement__group_id": [14, 5], "includesElement__heat_of_formation": [372.0, 782.0], "includesElement__is_radioactive": [false], "includesElement__lattice_constant": [5.66, 3.31], "includesElement__mendeleev_number": [89, 49], "includesElement__molar_heat_capacity": [23.222, 25.36], "includesElement__period": [4, 6], "includesElement__pettifor_number": [84, 53], "includesElement__specific_heat_capacity": [0.32, 0.14], "includesElement__vdw_radius": [211.0, 222.0], "includesElement__vdw_radius_alvarez": [229.0, 253.0], "includesElement__vdw_radius_mm3": [244.0, 243.0], "includesElement__vdw_radius_uff": [428.0, 317.0], "includesElement__abundance_sea": [5e-05, 2e-06], "includesElement__atomic_weight_uncertainty": [0.008, 2e-05], "includesElement__c6_gb": [365.0, 887.0], "includesElement__electronegativity_allen": [11.8, 7.93], "includesElement__en_allen": [11.8, 7.93], "includesElement__metallic_radius": [124.0, 134.0], "includesElement__metallic_radius_c12": [144.0, 146.0], "includesElement__thermal_conductivity": [60.2, 57.5], "includesElement__vdw_radius_batsanov": [210.0, 220.0], "includesElement__c6": [354.0], "includesElement__vdw_radius_dreiding": [427.0], "includesElement__vdw_radius_truhlar": [211.0], "formula": ["Ge6Ta10"], "spacegroup": ["140"], "thermalConductivity": [6.25187], "icsd": ["44744"], "band_gap": [0.0], "density": [14.0963], "density_atomic": [16.53111], "deprecated": [false], "efermi": [7.333101], "energy_above_hull": [0.0], "energy_per_atom": [-35.98182], "formation_energy_per_atom": [-0.4099344], "is_gap_direct": [false], "is_magnetic": [false], "is_metal": [true], "is_stable": [true], "nelements": [2], "nsites": [16], "num_magnetic_sites": [0], "num_unique_magnetic_sites": [0], "theoretical": [false], "total_magnetization": [1.8e-06], "total_magnetization_normalized_formula_units": [9e-07], "total_magnetization_normalized_vol": [6.805351e-09], "uncorrected_energy_per_atom": [-35.98182], "volume": [264.4977], "equilibrium_reaction_energy_per_atom": [-0.1440953]}