{"includesElement": ["", "Li", "N", "B"], "includesElement___series_id": [3, 1, 5], "includesElement__abundance_crust": [20.0, 19.0, 10.0], "includesElement__atomic_number": [3, 7, 5], "includesElement__atomic_radius": [145.0, 65.0, 85.0], "includesElement__atomic_radius_rahm": [220.0, 179.0, 205.0], "includesElement__atomic_volume": [13.1, 17.3, 4.6], "includesElement__atomic_weight": [6.94, 14.007, 10.81], "includesElement__covalent_radius_cordero": [128.0, 71.0, 84.0], "includesElement__covalent_radius_pyykko": [133.0, 71.0, 85.0], "includesElement__covalent_radius_pyykko_double": [124.0, 60.0, 78.0], "includesElement__density": [0.534, 0.001145, 2.34], "includesElement__dipole_polarizability": [164.1125, 7.4, 20.5], "includesElement__dipole_polarizability_unc": [0.0005, 0.2, 0.1], "includesElement__discovery_year": [1817, 1772, 1808], "includesElement__electron_affinity": [0.618049, -1.4, 0.279723], "includesElement__electronegativity_allred-rochow": [7.3492e-05, 0.000773656, 0.0003598616], "includesElement__electronegativity_cottrell-sutton": [0.09886575, 0.2343706, 0.1748949], "includesElement__electronegativity_ghosh": [0.105093, 0.26493, 0.184886], "includesElement__electronegativity_gordy": [0.009774436, 0.05492958, 0.03058824], "includesElement__electronegativity_mulliken": [3.004882, 6.567065, 4.288871], "includesElement__electronegativity_nagle": [0.1826499, 0.8774979, 0.5269739], "includesElement__electronegativity_pauling": [0.98, 3.04, 2.04], "includesElement__electronegativity_sanderson": [0.04886793, 0.577482, 0.2546274], "includesElement__en_ghosh": [0.105093, 0.26493, 0.184886], "includesElement__en_pauling": [0.98, 3.04, 2.04], "includesElement__evaporation_heat": [148.0, 504.5], "includesElement__fusion_heat": [2.89, 23.6], "includesElement__glawe_number": [12, 88, 86], "includesElement__group_id": [1, 15, 13], "includesElement__heat_of_formation": [159.3, 472.44, 565.0], "includesElement__is_radioactive": [false], "includesElement__lattice_constant": [3.49, 4.039, 8.73], "includesElement__mendeleev_number": [1, 93, 81], "includesElement__molar_heat_capacity": [24.86, 29.124, 11.087], "includesElement__period": [2], "includesElement__pettifor_number": [12, 100, 86], "includesElement__specific_heat_capacity": [3.582, 1.04, 1.026], "includesElement__vdw_radius": [182.0, 155.0, 192.0], "includesElement__vdw_radius_alvarez": [212.0, 166.0, 191.0], "includesElement__vdw_radius_mm3": [255.0, 193.0, 215.0], "includesElement__vdw_radius_uff": [245.1, 366.0, 408.3], "includesElement__abundance_sea": [0.18, 0.5, 4.44], "includesElement__c6_gb": [1410.0, 25.7, 99.2], "includesElement__covalent_radius_bragg": [150.0, 65.0], "includesElement__electronegativity_allen": [5.392, 18.13, 12.13], "includesElement__en_allen": [5.392, 18.13, 12.13], "includesElement__metallic_radius": [123.0, 80.0], "includesElement__metallic_radius_c12": [155.0, 53.0, 98.0], "includesElement__thermal_conductivity": [84.8, 0.026, 27.4], "includesElement__vdw_radius_batsanov": [220.0, 160.0, 180.0], "includesElement__c6": [1392.0, 24.2, 99.5], "includesElement__vdw_radius_bondi": [181.0, 155.0], "includesElement__covalent_radius_pyykko_triple": [54.0, 73.0], "includesElement__vdw_radius_dreiding": [366.21, 402.0], "includesElement__gas_basicity": [318.7], "includesElement__proton_affinity": [342.2], "includesElement__vdw_radius_rt": [164.0], "includesElement__vdw_radius_truhlar": [192.0], "formula": ["B2Li6N4"], "spacegroup": ["136"], "thermalConductivity": [12.0855], "icsd": ["155128"], "band_gap": [3.4548], "density": [1.799189], "density_atomic": [9.17514], "deprecated": [false], "efermi": [1.143782], "energy_above_hull": [0.004483982], "energy_per_atom": [-6.462964], "formation_energy_per_atom": [-1.002302], "is_gap_direct": [false], "is_magnetic": [false], "is_metal": [false], "is_stable": [false], "nelements": [3], "nsites": [12], "num_magnetic_sites": [0], "num_unique_magnetic_sites": [0], "theoretical": [false], "total_magnetization": [0.0], "total_magnetization_normalized_formula_units": [0.0], "total_magnetization_normalized_vol": [0.0], "uncorrected_energy_per_atom": [-6.462964], "volume": [110.1017], "cbm": [4.4848], "vbm": [1.03]}