{"includesElement": ["", "P", "Os"], "includesElement___series_id": [1, 8], "includesElement__abundance_crust": [1050.0, 0.0015], "includesElement__atomic_number": [15, 76], "includesElement__atomic_radius": [100.0, 130.0], "includesElement__atomic_radius_rahm": [223.0, 244.0], "includesElement__atomic_volume": [17.0, 8.43], "includesElement__atomic_weight": [30.97376, 190.23], "includesElement__covalent_radius_cordero": [107.0, 144.0], "includesElement__covalent_radius_pyykko": [111.0, 129.0], "includesElement__covalent_radius_pyykko_double": [102.0, 116.0], "includesElement__covalent_radius_pyykko_triple": [94.0, 109.0], "includesElement__density": [1.823, 22.5872], "includesElement__dipole_polarizability": [25.0, 57.0], "includesElement__dipole_polarizability_unc": [1.0, 3.0], "includesElement__discovery_year": [1669, 1804], "includesElement__electron_affinity": [0.746607, 1.1], "includesElement__electronegativity_allred-rochow": [0.0003895788, 0.000225347], "includesElement__electronegativity_cottrell-sutton": [0.2079501, 0.1704986], "includesElement__electronegativity_ghosh": [0.206931, 0.2479845], "includesElement__electronegativity_gordy": [0.04324324, 0.02906977], "includesElement__electronegativity_mulliken": [5.616646, 4.769115], "includesElement__electronegativity_nagle": [0.5848035, 0.5196828], "includesElement__electronegativity_pauling": [2.19, 2.2], "includesElement__electronegativity_sanderson": [0.4510269, 1.239276], "includesElement__en_ghosh": [0.206931, 0.2479845], "includesElement__en_pauling": [2.19, 2.2], "includesElement__evaporation_heat": [49.8, 738.0], "includesElement__fusion_heat": [2.51, 31.7], "includesElement__glawe_number": [89, 60], "includesElement__group_id": [15, 8], "includesElement__heat_of_formation": [316.5, 787.0], "includesElement__is_radioactive": [false], "includesElement__lattice_constant": [7.17, 2.74], "includesElement__mendeleev_number": [94, 61], "includesElement__molar_heat_capacity": [23.824, 24.7], "includesElement__period": [3, 6], "includesElement__pettifor_number": [90, 62], "includesElement__specific_heat_capacity": [0.769, 0.13], "includesElement__vdw_radius": [180.0, 216.0], "includesElement__vdw_radius_alvarez": [190.0, 248.0], "includesElement__vdw_radius_mm3": [222.0, 235.0], "includesElement__vdw_radius_uff": [414.7, 312.0], "includesElement__abundance_sea": [0.06], "includesElement__atomic_weight_uncertainty": [5e-09, 0.03], "includesElement__c6_gb": [187.0, 584.0], "includesElement__electronegativity_allen": [13.33, 9.78], "includesElement__en_allen": [13.33, 9.78], "includesElement__metallic_radius": [110.0, 126.0], "includesElement__metallic_radius_c12": [128.0, 135.0], "includesElement__vdw_radius_batsanov": [195.0, 200.0], "includesElement__c6": [185.0], "includesElement__is_monoisotopic": [true], "includesElement__vdw_radius_dreiding": [415.0], "includesElement__gas_basicity": [604.8], "includesElement__proton_affinity": [626.8], "includesElement__vdw_radius_bondi": [180.0], "formula": ["Os2P4"], "spacegroup": ["58"], "thermalConductivity": [21.322], "icsd": ["42609"], "band_gap": [0.8903], "density": [9.447314], "density_atomic": [14.77494], "deprecated": [false], "efermi": [7.986581], "energy_above_hull": [0.0], "energy_per_atom": [-24.2705], "formation_energy_per_atom": [-0.6073712], "is_gap_direct": [false], "is_magnetic": [false], "is_metal": [false], "is_stable": [true], "nelements": [2], "nsites": [6], "num_magnetic_sites": [0], "num_unique_magnetic_sites": [0], "theoretical": [false], "total_magnetization": [0.0], "total_magnetization_normalized_formula_units": [0.0], "total_magnetization_normalized_vol": [0.0], "uncorrected_energy_per_atom": [-24.2705], "volume": [88.64967], "cbm": [8.8178], "e_electronic": [18.21272], "e_ionic": [12.21457], "e_total": [30.4273], "equilibrium_reaction_energy_per_atom": [-0.2228796], "n": [4.267637], "vbm": [7.9275]}