{"includesElement": ["", "Ca", "F", "K"], "includesElement___series_id": [4, 6, 3], "includesElement__abundance_crust": [41500.0, 585.0, 20900.0], "includesElement__atomic_number": [20, 9, 19], "includesElement__atomic_radius": [180.0, 50.0, 220.0], "includesElement__atomic_radius_rahm": [270.0, 163.0, 234.0], "includesElement__atomic_volume": [29.9, 17.1, 45.3], "includesElement__atomic_weight": [40.078, 18.9984, 39.0983], "includesElement__covalent_radius_cordero": [176.0, 57.0, 203.0], "includesElement__covalent_radius_pyykko": [171.0, 64.0, 196.0], "includesElement__covalent_radius_pyykko_double": [147.0, 59.0, 193.0], "includesElement__covalent_radius_pyykko_triple": [133.0, 53.0], "includesElement__density": [1.54, 0.001553, 0.89], "includesElement__dipole_polarizability": [160.8, 3.74, 289.7], "includesElement__dipole_polarizability_unc": [4.0, 0.08, 0.3], "includesElement__discovery_year": [1808, 1886, 1807], "includesElement__electron_affinity": [0.02455, 3.40119, 0.50147], "includesElement__electronegativity_allred-rochow": [9.746589e-05, 0.001269531, 5.726781e-05], "includesElement__electronegativity_cottrell-sutton": [0.1290994, 0.2850439, 0.1059457], "includesElement__electronegativity_ghosh": [0.1154119, 0.344443, 0.0981896], "includesElement__electronegativity_gordy": [0.01666667, 0.08125, 0.01122449], "includesElement__electronegativity_mulliken": [3.068853, 10.412, 2.421067], "includesElement__electronegativity_nagle": [0.2316939, 1.232373, 0.1511299], "includesElement__electronegativity_pauling": [1.0, 3.98, 0.82], "includesElement__electronegativity_sanderson": [0.1901577, 1.017681, 0.1218383], "includesElement__en_ghosh": [0.1154119, 0.344443, 0.0981896], "includesElement__en_pauling": [1.0, 3.98, 0.82], "includesElement__evaporation_heat": [153.6, 6.54, 2.33], "includesElement__fusion_heat": [9.2, 0.51, 102.5], "includesElement__glawe_number": [16, 102, 10], "includesElement__group_id": [2, 17, 1], "includesElement__heat_of_formation": [177.8, 79.335, 89.0], "includesElement__is_radioactive": [false], "includesElement__lattice_constant": [5.58, 5.23], "includesElement__mendeleev_number": [7, 106, 3], "includesElement__molar_heat_capacity": [25.929, 31.304, 29.6], "includesElement__period": [4, 2], "includesElement__pettifor_number": [16, 102, 10], "includesElement__specific_heat_capacity": [0.647, 0.824, 0.757], "includesElement__vdw_radius": [231.0, 147.0, 275.0], "includesElement__vdw_radius_alvarez": [262.0, 146.0, 273.0], "includesElement__vdw_radius_mm3": [281.0, 171.0, 309.0], "includesElement__vdw_radius_uff": [339.9, 336.4, 381.2], "includesElement__abundance_sea": [412.0, 1.3, 399.0], "includesElement__atomic_weight_uncertainty": [0.004, 6e-09, 0.0001], "includesElement__c6_gb": [2230.0, 10.2, 3910.0], "includesElement__covalent_radius_bragg": [170.0, 67.0, 207.0], "includesElement__electronegativity_allen": [6.113, 24.8, 4.34], "includesElement__en_allen": [6.113, 24.8, 4.34], "includesElement__metallic_radius": [174.0, 203.0], "includesElement__metallic_radius_c12": [197.0, 235.0], "includesElement__vdw_radius_batsanov": [240.0, 150.0, 280.0], "includesElement__c6": [2163.0, 9.52, 3923.0], "includesElement__vdw_radius_truhlar": [231.0], "includesElement__thermal_conductivity": [0.028, 79.0], "includesElement__is_monoisotopic": [true], "includesElement__vdw_radius_dreiding": [347.2], "includesElement__gas_basicity": [315.1], "includesElement__proton_affinity": [340.1], "includesElement__vdw_radius_bondi": [147.0, 275.0], "includesElement__vdw_radius_rt": [146.0], "formula": ["Ca1F3K1"], "spacegroup": ["221"], "thermalConductivity": [2.89107], "icsd": ["154073"], "band_gap": [6.1392], "density": [2.511883], "density_atomic": [18.00387], "deprecated": [false], "efermi": [-2.373532], "energy_above_hull": [0.02386428], "energy_per_atom": [-8.16295], "formation_energy_per_atom": [-3.677446], "homogeneous_poisson": [0.278], "is_gap_direct": [false], "is_magnetic": [false], "is_metal": [false], "is_stable": [false], "nelements": [3], "nsites": [5], "num_magnetic_sites": [0], "num_unique_magnetic_sites": [0], "theoretical": [false], "total_magnetization": [0.0], "total_magnetization_normalized_formula_units": [0.0], "total_magnetization_normalized_vol": [0.0], "uncorrected_energy_per_atom": [-5.193943], "universal_anisotropy": [1.171], "volume": [90.01936], "cbm": [3.5483], "vbm": [-2.5909]}