{"includesElement": ["", "Sc", "In"], "includesElement___series_id": [8, 7], "includesElement__abundance_crust": [22.0, 0.25], "includesElement__atomic_number": [21, 49], "includesElement__atomic_radius": [160.0, 155.0], "includesElement__atomic_radius_rahm": [263.0, 246.0], "includesElement__atomic_volume": [15.0, 15.7], "includesElement__atomic_weight": [44.95591, 114.818], "includesElement__covalent_radius_cordero": [170.0, 142.0], "includesElement__covalent_radius_pyykko": [148.0, 142.0], "includesElement__covalent_radius_pyykko_double": [116.0, 136.0], "includesElement__covalent_radius_pyykko_triple": [114.0, 146.0], "includesElement__density": [2.99, 7.31], "includesElement__dipole_polarizability": [97.0, 65.0], "includesElement__dipole_polarizability_unc": [10.0, 4.0], "includesElement__discovery_year": [1879, 1863], "includesElement__electron_affinity": [0.188, 0.3], "includesElement__electronegativity_allred-rochow": [0.0001369613, 0.0002479667], "includesElement__electronegativity_cottrell-sutton": [0.1423737, 0.1876467], "includesElement__electronegativity_ghosh": [0.1193833, 0.16423], "includesElement__electronegativity_gordy": [0.02027027, 0.03521127], "includesElement__electronegativity_mulliken": [3.374745, 3.043178], "includesElement__electronegativity_nagle": [0.3138941, 0.3587038], "includesElement__electronegativity_pauling": [1.36, 1.78], "includesElement__electronegativity_sanderson": [0.3038674, 0.7172747], "includesElement__en_ghosh": [0.1193833, 0.16423], "includesElement__en_pauling": [1.36, 1.78], "includesElement__evaporation_heat": [332.7, 225.1], "includesElement__fusion_heat": [15.8, 3.24], "includesElement__glawe_number": [48, 80], "includesElement__group_id": [3, 13], "includesElement__heat_of_formation": [377.8, 243.0], "includesElement__is_radioactive": [false], "includesElement__lattice_constant": [3.31, 4.59], "includesElement__mendeleev_number": [11, 84], "includesElement__molar_heat_capacity": [25.52, 26.74], "includesElement__period": [4, 5], "includesElement__pettifor_number": [20, 79], "includesElement__specific_heat_capacity": [0.568, 0.233], "includesElement__vdw_radius": [215.0, 193.0], "includesElement__vdw_radius_alvarez": [258.0, 243.0], "includesElement__vdw_radius_mm3": [261.0, 264.0], "includesElement__vdw_radius_uff": [329.5, 446.3], "includesElement__abundance_sea": [6e-07, 0.02], "includesElement__atomic_weight_uncertainty": [5e-06, 0.001], "includesElement__c6_gb": [1570.0, 643.0], "includesElement__electronegativity_allen": [7.042, 9.793], "includesElement__en_allen": [7.042, 9.793], "includesElement__metallic_radius": [144.0, 142.0], "includesElement__metallic_radius_c12": [162.0, 158.0], "includesElement__thermal_conductivity": [15.8, 81.8], "includesElement__vdw_radius_batsanov": [230.0, 220.0], "includesElement__c6": [1383.0, 779.0], "includesElement__is_monoisotopic": [true], "includesElement__gas_basicity": [892.0], "includesElement__proton_affinity": [914.0], "includesElement__vdw_radius_dreiding": [459.0], "includesElement__vdw_radius_bondi": [193.0], "formula": ["In2Sc6"], "spacegroup": ["194"], "thermalConductivity": [5.43107, 5.45353], "icsd": ["15908", "640465"], "band_gap": [0.0], "density": [4.464642], "density_atomic": [23.21647], "deprecated": [false], "efermi": [5.184351], "energy_above_hull": [0.0], "energy_per_atom": [-14.57056], "formation_energy_per_atom": [-0.3770494], "is_gap_direct": [false], "is_magnetic": [true], "is_metal": [true], "is_stable": [true], "nelements": [2], "nsites": [8], "num_magnetic_sites": [6], "num_unique_magnetic_sites": [1], "theoretical": [false], "total_magnetization": [3.790031], "total_magnetization_normalized_formula_units": [1.895015], "total_magnetization_normalized_vol": [0.02040594], "uncorrected_energy_per_atom": [-14.57056], "volume": [185.7318], "equilibrium_reaction_energy_per_atom": [-0.02424132]}