{"includesElement": ["", "Sb", "Rb"], "includesElement___series_id": [5, 3], "includesElement__abundance_crust": [0.2, 90.0], "includesElement__atomic_number": [51, 37], "includesElement__atomic_radius": [145.0, 235.0], "includesElement__atomic_radius_rahm": [246.0, 240.0], "includesElement__atomic_volume": [18.4, 55.9], "includesElement__atomic_weight": [121.76, 85.4678], "includesElement__covalent_radius_cordero": [139.0, 220.0], "includesElement__covalent_radius_pyykko": [140.0, 210.0], "includesElement__covalent_radius_pyykko_double": [133.0, 202.0], "includesElement__covalent_radius_pyykko_triple": [127.0], "includesElement__density": [6.68, 1.53], "includesElement__dipole_polarizability": [43.0, 319.8], "includesElement__dipole_polarizability_unc": [2.0, 0.3], "includesElement__electron_affinity": [1.046, 0.48592], "includesElement__electronegativity_allred-rochow": [0.0003214286, 4.988662e-05], "includesElement__electronegativity_cottrell-sutton": [0.212132, 0.1023533], "includesElement__electronegativity_ghosh": [0.1918774, 0.104686], "includesElement__electronegativity_gordy": [0.045, 0.01047619], "includesElement__electronegativity_mulliken": [4.827195, 2.331524], "includesElement__electronegativity_nagle": [0.4880907, 0.1462314], "includesElement__electronegativity_pauling": [2.05, 0.82], "includesElement__electronegativity_sanderson": [0.7762722, 0.1764136], "includesElement__en_ghosh": [0.1918774, 0.104686], "includesElement__en_pauling": [2.05, 0.82], "includesElement__evaporation_heat": [195.2, 75.8], "includesElement__fusion_heat": [20.08, 2.2], "includesElement__glawe_number": [91, 9], "includesElement__group_id": [15, 1], "includesElement__heat_of_formation": [264.4, 80.9], "includesElement__is_radioactive": [false], "includesElement__lattice_constant": [4.51, 5.59], "includesElement__mendeleev_number": [96, 4], "includesElement__molar_heat_capacity": [25.23, 31.06], "includesElement__period": [5], "includesElement__pettifor_number": [88, 9], "includesElement__specific_heat_capacity": [0.207, 0.363], "includesElement__vdw_radius": [206.0, 303.0], "includesElement__vdw_radius_alvarez": [247.0, 321.0], "includesElement__vdw_radius_mm3": [252.0, 325.0], "includesElement__vdw_radius_uff": [442.0, 411.4], "includesElement__abundance_sea": [0.00024, 0.12], "includesElement__atomic_weight_uncertainty": [0.001, 0.0003], "includesElement__c6_gb": [504.0, 4660.0], "includesElement__covalent_radius_bragg": [140.0, 225.0], "includesElement__electronegativity_allen": [11.74, 4.177], "includesElement__en_allen": [11.74, 4.177], "includesElement__metallic_radius": [139.0, 216.0], "includesElement__metallic_radius_c12": [166.0, 248.0], "includesElement__thermal_conductivity": [24.43, 58.2], "includesElement__vdw_radius_batsanov": [220.0, 290.0], "includesElement__c6": [492.0, 4769.0], "includesElement__vdw_radius_dreiding": [435.0], "includesElement__vdw_radius_truhlar": [206.0, 303.0], "includesElement__discovery_year": [1861], "formula": ["Rb8Sb8"], "spacegroup": ["19"], "thermalConductivity": [0.314214], "icsd": ["14030"], "band_gap": [0.5423], "density": [3.956814], "density_atomic": [43.4832], "deprecated": [false], "efermi": [2.312726], "energy_above_hull": [0.001018276], "energy_per_atom": [-3.068885], "formation_energy_per_atom": [-0.5141177], "is_gap_direct": [true], "is_magnetic": [false], "is_metal": [false], "is_stable": [false], "nelements": [2], "nsites": [16], "num_magnetic_sites": [0], "num_unique_magnetic_sites": [0], "theoretical": [false], "total_magnetization": [0.0], "total_magnetization_normalized_formula_units": [0.0], "total_magnetization_normalized_vol": [0.0], "uncorrected_energy_per_atom": [-20.38133], "volume": [695.7311], "cbm": [2.7593], "e_electronic": [8.215915], "e_ionic": [4.651781], "e_total": [12.8677], "n": [2.866342], "vbm": [2.217], "e_ij_max": [0.17635]}