{"includesElement": ["", "Ni", "Sc", "In"], "includesElement___series_id": [8, 7], "includesElement__abundance_crust": [84.0, 22.0, 0.25], "includesElement__atomic_number": [28, 21, 49], "includesElement__atomic_radius": [135.0, 160.0, 155.0], "includesElement__atomic_radius_rahm": [229.0, 263.0, 246.0], "includesElement__atomic_volume": [6.6, 15.0, 15.7], "includesElement__atomic_weight": [58.6934, 44.95591, 114.818], "includesElement__covalent_radius_cordero": [124.0, 170.0, 142.0], "includesElement__covalent_radius_pyykko": [110.0, 148.0, 142.0], "includesElement__covalent_radius_pyykko_double": [101.0, 116.0, 136.0], "includesElement__covalent_radius_pyykko_triple": [101.0, 114.0, 146.0], "includesElement__density": [8.9, 2.99, 7.31], "includesElement__dipole_polarizability": [49.0, 97.0, 65.0], "includesElement__dipole_polarizability_unc": [3.0, 10.0, 4.0], "includesElement__discovery_year": [1751, 1879, 1863], "includesElement__electron_affinity": [1.156, 0.188, 0.3], "includesElement__electronegativity_allred-rochow": [0.0003347107, 0.0001369613, 0.0002479667], "includesElement__electronegativity_cottrell-sutton": [0.1918806, 0.1423737, 0.1876467], "includesElement__electronegativity_ghosh": [0.1472068, 0.1193833, 0.16423], "includesElement__electronegativity_gordy": [0.03681818, 0.02027027, 0.03521127], "includesElement__electronegativity_mulliken": [4.397939, 3.374745, 3.043178], "includesElement__electronegativity_nagle": [0.588755, 0.3138941, 0.3587038], "includesElement__electronegativity_pauling": [1.91, 1.36, 1.78], "includesElement__electronegativity_sanderson": [0.937704, 0.3038674, 0.7172747], "includesElement__en_ghosh": [0.1472068, 0.1193833, 0.16423], "includesElement__en_pauling": [1.91, 1.36, 1.78], "includesElement__evaporation_heat": [378.6, 332.7, 225.1], "includesElement__fusion_heat": [17.61, 15.8, 3.24], "includesElement__glawe_number": [69, 48, 80], "includesElement__group_id": [10, 3, 13], "includesElement__heat_of_formation": [430.1, 377.8, 243.0], "includesElement__is_radioactive": [false], "includesElement__lattice_constant": [3.52, 3.31, 4.59], "includesElement__mendeleev_number": [67, 11, 84], "includesElement__molar_heat_capacity": [26.07, 25.52, 26.74], "includesElement__period": [4, 5], "includesElement__pettifor_number": [67, 20, 79], "includesElement__specific_heat_capacity": [0.444, 0.568, 0.233], "includesElement__vdw_radius": [197.0, 215.0, 193.0], "includesElement__vdw_radius_alvarez": [240.0, 258.0, 243.0], "includesElement__vdw_radius_mm3": [222.0, 261.0, 264.0], "includesElement__vdw_radius_uff": [283.4, 329.5, 446.3], "includesElement__abundance_sea": [0.00056, 6e-07, 0.02], "includesElement__atomic_weight_uncertainty": [0.0004, 5e-06, 0.001], "includesElement__c6_gb": [393.0, 1570.0, 643.0], "includesElement__covalent_radius_bragg": [135.0], "includesElement__electronegativity_allen": [11.13, 7.042, 9.793], "includesElement__en_allen": [11.13, 7.042, 9.793], "includesElement__metallic_radius": [115.0, 144.0, 142.0], "includesElement__metallic_radius_c12": [124.0, 162.0, 158.0], "includesElement__thermal_conductivity": [90.9, 15.8, 81.8], "includesElement__vdw_radius_batsanov": [200.0, 230.0, 220.0], "includesElement__c6": [373.0, 1383.0, 779.0], "includesElement__gas_basicity": [714.1, 892.0], "includesElement__proton_affinity": [737.0, 914.0], "includesElement__is_monoisotopic": [true], "includesElement__vdw_radius_dreiding": [459.0], "includesElement__vdw_radius_bondi": [193.0], "formula": ["In1Ni2Sc1"], "spacegroup": ["225"], "thermalConductivity": [6.19793], "icsd": ["59446"], "band_gap": [0.0], "density": [7.621901], "density_atomic": [15.09585], "deprecated": [false], "efermi": [7.81085], "energy_above_hull": [0.0], "energy_per_atom": [-5.605682], "formation_energy_per_atom": [-0.4427034], "homogeneous_poisson": [0.298], "is_gap_direct": [false], "is_magnetic": [false], "is_metal": [true], "is_stable": [true], "nelements": [3], "nsites": [4], "num_magnetic_sites": [0], "num_unique_magnetic_sites": [0], "theoretical": [false], "total_magnetization": [7.49e-05], "total_magnetization_normalized_formula_units": [7.49e-05], "total_magnetization_normalized_vol": [1.240407e-06], "uncorrected_energy_per_atom": [-14.92915], "universal_anisotropy": [0.622], "volume": [60.38338], "equilibrium_reaction_energy_per_atom": [-0.0134369]}