{"includesElement": ["", "Mn", "Au"], "includesElement___series_id": [8], "includesElement__abundance_crust": [950.0, 0.004], "includesElement__atomic_number": [25, 79], "includesElement__atomic_radius": [140.0, 135.0], "includesElement__atomic_radius_rahm": [242.0, 226.0], "includesElement__atomic_volume": [7.39, 10.2], "includesElement__atomic_weight": [54.93804, 196.9666], "includesElement__covalent_radius_cordero": [150.0, 136.0], "includesElement__covalent_radius_pyykko": [119.0, 124.0], "includesElement__covalent_radius_pyykko_double": [105.0, 121.0], "includesElement__covalent_radius_pyykko_triple": [103.0, 123.0], "includesElement__density": [7.3, 19.3], "includesElement__dipole_polarizability": [68.0, 36.0], "includesElement__dipole_polarizability_unc": [9.0, 3.0], "includesElement__discovery_year": [1774], "includesElement__electronegativity_allred-rochow": [0.0002542193, 0.0002406348], "includesElement__electronegativity_cottrell-sutton": [0.1739313, 0.1727388], "includesElement__electronegativity_ghosh": [0.1352844, 0.26137], "includesElement__electronegativity_gordy": [0.0302521, 0.02983871], "includesElement__electronegativity_mulliken": [3.717009, 5.767091], "includesElement__electronegativity_nagle": [0.4686656, 0.67354], "includesElement__electronegativity_pauling": [1.55, 2.4], "includesElement__electronegativity_sanderson": [0.6707264, 1.426701], "includesElement__en_ghosh": [0.1352844, 0.26137], "includesElement__en_pauling": [1.55, 2.4], "includesElement__evaporation_heat": [221.0, 340.0], "includesElement__fusion_heat": [13.4, 12.68], "includesElement__glawe_number": [72, 66], "includesElement__group_id": [7, 11], "includesElement__heat_of_formation": [283.3, 368.2], "includesElement__is_radioactive": [false], "includesElement__lattice_constant": [8.89, 4.08], "includesElement__mendeleev_number": [55, 73], "includesElement__molar_heat_capacity": [26.32, 25.418], "includesElement__period": [4, 6], "includesElement__pettifor_number": [60, 70], "includesElement__specific_heat_capacity": [0.479, 0.129], "includesElement__vdw_radius": [205.0, 214.0], "includesElement__vdw_radius_alvarez": [245.0, 232.0], "includesElement__vdw_radius_mm3": [224.0, 243.0], "includesElement__vdw_radius_uff": [296.1, 329.3], "includesElement__abundance_sea": [0.0002, 4e-06], "includesElement__atomic_weight_uncertainty": [3e-06, 5e-06], "includesElement__c6_gb": [635.0, 427.0], "includesElement__covalent_radius_bragg": [147.0], "includesElement__electronegativity_allen": [10.34, 11.33], "includesElement__en_allen": [10.34, 11.33], "includesElement__metallic_radius": [118.0, 134.0], "includesElement__metallic_radius_c12": [127.0, 144.0], "includesElement__vdw_radius_batsanov": [205.0, 210.0], "includesElement__c6": [552.0], "includesElement__is_monoisotopic": [true], "includesElement__gas_basicity": [774.4], "includesElement__proton_affinity": [797.3], "includesElement__electron_affinity": [2.30863], "includesElement__thermal_conductivity": [318.0], "formula": ["Au1Mn2"], "spacegroup": ["139"], "thermalConductivity": [2.6582], "icsd": ["58548"], "band_gap": [0.0], "density": [10.95824], "density_atomic": [15.49897], "deprecated": [false], "efermi": [4.736621], "energy_above_hull": [0.2353726], "energy_per_atom": [-26.66448], "formation_energy_per_atom": [-0.01393921], "homogeneous_poisson": [0.335], "is_gap_direct": [false], "is_magnetic": [true], "is_metal": [true], "is_stable": [false], "nelements": [2], "nsites": [3], "num_magnetic_sites": [2], "num_unique_magnetic_sites": [1], "theoretical": [false], "total_magnetization": [6.999056], "total_magnetization_normalized_formula_units": [6.999056], "total_magnetization_normalized_vol": [0.1505274], "uncorrected_energy_per_atom": [-7.019261], "universal_anisotropy": [6.143], "volume": [46.4969]}