{"includesElement": ["", "Bi", "F", "Rb"], "includesElement___series_id": [7, 6, 3], "includesElement__abundance_crust": [0.0085, 585.0, 90.0], "includesElement__atomic_number": [83, 9, 37], "includesElement__atomic_radius": [160.0, 50.0, 235.0], "includesElement__atomic_radius_rahm": [250.0, 163.0, 240.0], "includesElement__atomic_volume": [21.3, 17.1, 55.9], "includesElement__atomic_weight": [208.9804, 18.9984, 85.4678], "includesElement__covalent_radius_cordero": [148.0, 57.0, 220.0], "includesElement__covalent_radius_pyykko": [151.0, 64.0, 210.0], "includesElement__covalent_radius_pyykko_double": [141.0, 59.0, 202.0], "includesElement__covalent_radius_pyykko_triple": [135.0, 53.0], "includesElement__density": [9.79, 0.001553, 1.53], "includesElement__dipole_polarizability": [48.0, 3.74, 319.8], "includesElement__dipole_polarizability_unc": [4.0, 0.08, 0.3], "includesElement__electron_affinity": [0.942362, 3.40119, 0.48592], "includesElement__electronegativity_allred-rochow": [0.0002763037, 0.001269531, 4.988662e-05], "includesElement__electronegativity_cottrell-sutton": [0.2042593, 0.2850439, 0.1023533], "includesElement__electronegativity_ghosh": [0.182377, 0.344443, 0.104686], "includesElement__electronegativity_gordy": [0.04172185, 0.08125, 0.01047619], "includesElement__electronegativity_mulliken": [4.113939, 10.412, 2.331524], "includesElement__electronegativity_nagle": [0.470518, 1.232373, 0.1462314], "includesElement__electronegativity_pauling": [1.9, 3.98, 0.82], "includesElement__electronegativity_sanderson": [0.8136501, 1.017681, 0.1764136], "includesElement__en_ghosh": [0.182377, 0.344443, 0.104686], "includesElement__en_pauling": [1.9, 3.98, 0.82], "includesElement__evaporation_heat": [172.0, 6.54, 75.8], "includesElement__fusion_heat": [11.0, 0.51, 2.2], "includesElement__glawe_number": [92, 102, 9], "includesElement__group_id": [15, 17, 1], "includesElement__heat_of_formation": [209.6, 79.335, 80.9], "includesElement__is_radioactive": [false], "includesElement__lattice_constant": [4.75, 5.59], "includesElement__mendeleev_number": [97, 106, 4], "includesElement__molar_heat_capacity": [25.52, 31.304, 31.06], "includesElement__period": [6, 2, 5], "includesElement__pettifor_number": [87, 102, 9], "includesElement__specific_heat_capacity": [0.122, 0.824, 0.363], "includesElement__vdw_radius": [207.0, 147.0, 303.0], "includesElement__vdw_radius_alvarez": [254.0, 146.0, 321.0], "includesElement__vdw_radius_mm3": [266.0, 171.0, 325.0], "includesElement__vdw_radius_uff": [437.0, 336.4, 411.4], "includesElement__abundance_sea": [2e-05, 1.3, 0.12], "includesElement__atomic_weight_uncertainty": [1e-05, 6e-09, 0.0003], "includesElement__c6_gb": [513.0, 10.2, 4660.0], "includesElement__covalent_radius_bragg": [148.0, 67.0, 225.0], "includesElement__electronegativity_allen": [11.9, 24.8, 4.177], "includesElement__en_allen": [11.9, 24.8, 4.177], "includesElement__metallic_radius": [151.0, 216.0], "includesElement__metallic_radius_c12": [178.0, 248.0], "includesElement__thermal_conductivity": [7.9, 0.028, 58.2], "includesElement__vdw_radius_batsanov": [230.0, 150.0, 290.0], "includesElement__is_monoisotopic": [true], "includesElement__vdw_radius_truhlar": [207.0, 303.0], "includesElement__discovery_year": [1886, 1861], "includesElement__c6": [9.52, 4769.0], "includesElement__vdw_radius_dreiding": [347.2], "includesElement__gas_basicity": [315.1], "includesElement__proton_affinity": [340.1], "includesElement__vdw_radius_bondi": [147.0], "includesElement__vdw_radius_rt": [146.0], "formula": ["Bi4F16Rb4"], "spacegroup": ["227"], "thermalConductivity": [0.5507], "icsd": ["63167"], "band_gap": [2.8776], "density": [5.594523], "density_atomic": [18.32546], "deprecated": [false], "efermi": [0.532641], "energy_above_hull": [0.0558028], "energy_per_atom": [-4.901799], "formation_energy_per_atom": [-2.823976], "is_gap_direct": [true], "is_magnetic": [false], "is_metal": [false], "is_stable": [false], "nelements": [3], "nsites": [24], "num_magnetic_sites": [0], "num_unique_magnetic_sites": [0], "theoretical": [false], "total_magnetization": [0.0002553], "total_magnetization_normalized_formula_units": [6.3825e-05], "total_magnetization_normalized_vol": [5.804767e-07], "uncorrected_energy_per_atom": [-4.593799], "volume": [439.8109], "cbm": [3.3576], "vbm": [0.48]}