{"includesElement": ["", "P", "Fe", "Hf"], "includesElement___series_id": [1, 8], "includesElement__abundance_crust": [1050.0, 56300.0, 3.0], "includesElement__atomic_number": [15, 26, 72], "includesElement__atomic_radius": [100.0, 140.0, 155.0], "includesElement__atomic_radius_rahm": [223.0, 237.0, 264.0], "includesElement__atomic_volume": [17.0, 7.1, 13.6], "includesElement__atomic_weight": [30.97376, 55.845, 178.49], "includesElement__covalent_radius_cordero": [107.0, 142.0, 175.0], "includesElement__covalent_radius_pyykko": [111.0, 116.0, 152.0], "includesElement__covalent_radius_pyykko_double": [102.0, 109.0, 128.0], "includesElement__covalent_radius_pyykko_triple": [94.0, 102.0, 122.0], "includesElement__density": [1.823, 7.87, 13.3], "includesElement__dipole_polarizability": [25.0, 62.0, 103.0], "includesElement__dipole_polarizability_unc": [1.0, 4.0, 6.0], "includesElement__discovery_year": [1669, 1923], "includesElement__electron_affinity": [0.746607, 0.151, 0.014], "includesElement__electronegativity_allred-rochow": [0.0003895788, 0.0002786861, 0.00013634], "includesElement__electronegativity_cottrell-sutton": [0.2079501, 0.1797987, 0.1439572], "includesElement__electronegativity_ghosh": [0.206931, 0.1392532, 0.229987], "includesElement__electronegativity_gordy": [0.04324324, 0.03232759, 0.02072368], "includesElement__electronegativity_mulliken": [5.616646, 4.026734, 3.419535], "includesElement__electronegativity_nagle": [0.5848035, 0.5053195, 0.3386421], "includesElement__electronegativity_pauling": [2.19, 1.83, 1.3], "includesElement__electronegativity_sanderson": [0.4510269, 0.748727, 0.7352125], "includesElement__en_ghosh": [0.206931, 0.1392532, 0.229987], "includesElement__en_pauling": [2.19, 1.83, 1.3], "includesElement__evaporation_heat": [49.8, 340.0, 575.0], "includesElement__fusion_heat": [2.51, 13.8, 25.1], "includesElement__glawe_number": [89, 71, 50], "includesElement__group_id": [15, 8, 4], "includesElement__heat_of_formation": [316.5, 415.5, 618.4], "includesElement__is_radioactive": [false], "includesElement__lattice_constant": [7.17, 2.87, 3.2], "includesElement__mendeleev_number": [94, 59, 45], "includesElement__molar_heat_capacity": [23.824, 25.1, 25.73], "includesElement__period": [3, 4, 6], "includesElement__pettifor_number": [90, 61, 50], "includesElement__specific_heat_capacity": [0.769, 0.449, 0.144], "includesElement__vdw_radius": [180.0, 204.0, 223.0], "includesElement__vdw_radius_alvarez": [190.0, 244.0, 263.0], "includesElement__vdw_radius_mm3": [222.0, 223.0, 253.0], "includesElement__vdw_radius_uff": [414.7, 291.2, 314.1], "includesElement__abundance_sea": [0.06, 0.002, 7e-06], "includesElement__atomic_weight_uncertainty": [5e-09, 0.002, 0.02], "includesElement__c6_gb": [187.0, 548.0, 1040.0], "includesElement__electronegativity_allen": [13.33, 10.64, 6.83], "includesElement__en_allen": [13.33, 10.64, 6.83], "includesElement__metallic_radius": [110.0, 117.0, 144.0], "includesElement__metallic_radius_c12": [128.0, 126.0, 159.0], "includesElement__vdw_radius_batsanov": [195.0, 205.0, 225.0], "includesElement__c6": [185.0, 482.0], "includesElement__is_monoisotopic": [true], "includesElement__vdw_radius_dreiding": [415.0], "includesElement__gas_basicity": [604.8, 731.1], "includesElement__proton_affinity": [626.8, 754.0], "includesElement__vdw_radius_bondi": [180.0], "includesElement__covalent_radius_bragg": [140.0], "includesElement__thermal_conductivity": [80.4, 23.0], "formula": ["Fe4Hf4P4"], "spacegroup": ["62"], "thermalConductivity": [5.44303], "icsd": ["86280"], "band_gap": [0.0], "density": [11.01088], "density_atomic": [13.33697], "deprecated": [false], "efermi": [7.893543], "energy_above_hull": [0.0], "energy_per_atom": [-8.987234], "formation_energy_per_atom": [-1.039672], "homogeneous_poisson": [0.256], "is_gap_direct": [false], "is_magnetic": [false], "is_metal": [true], "is_stable": [true], "nelements": [3], "nsites": [12], "num_magnetic_sites": [0], "num_unique_magnetic_sites": [0], "theoretical": [false], "total_magnetization": [0.0323328], "total_magnetization_normalized_formula_units": [0.0080832], "total_magnetization_normalized_vol": [0.0002020248], "uncorrected_energy_per_atom": [-23.78171], "universal_anisotropy": [0.129], "volume": [160.0437], "equilibrium_reaction_energy_per_atom": [-0.1779866]}