{"includesElement": ["", "Pt", "Mo"], "includesElement___series_id": [8], "includesElement__abundance_crust": [0.005, 1.2], "includesElement__atomic_number": [78, 42], "includesElement__atomic_radius": [135.0, 145.0], "includesElement__atomic_radius_rahm": [230.0, 244.0], "includesElement__atomic_volume": [9.1, 9.4], "includesElement__atomic_weight": [195.084, 95.95], "includesElement__covalent_radius_cordero": [136.0, 154.0], "includesElement__covalent_radius_pyykko": [123.0, 138.0], "includesElement__covalent_radius_pyykko_double": [112.0, 121.0], "includesElement__covalent_radius_pyykko_triple": [110.0, 113.0], "includesElement__density": [21.5, 10.2], "includesElement__dipole_polarizability": [48.0, 87.0], "includesElement__dipole_polarizability_unc": [4.0, 6.0], "includesElement__discovery_year": [1735, 1778], "includesElement__electron_affinity": [2.128, 0.748], "includesElement__electronegativity_allred-rochow": [0.0002346487, 0.0001549044], "includesElement__electronegativity_cottrell-sutton": [0.1698876, 0.1462081], "includesElement__electronegativity_ghosh": [0.25691, 0.1312672], "includesElement__electronegativity_gordy": [0.02886179, 0.02137681], "includesElement__electronegativity_mulliken": [5.543415, 3.920215], "includesElement__electronegativity_nagle": [0.5928156, 0.4100883], "includesElement__electronegativity_pauling": [2.2, 2.16], "includesElement__electronegativity_sanderson": [1.45101, 0.685295], "includesElement__en_ghosh": [0.25691, 0.1312672], "includesElement__en_pauling": [2.2, 2.16], "includesElement__evaporation_heat": [470.0, 590.0], "includesElement__fusion_heat": [21.76, 28.0], "includesElement__glawe_number": [64, 56], "includesElement__group_id": [10, 6], "includesElement__heat_of_formation": [565.7, 658.98], "includesElement__is_radioactive": [false], "includesElement__lattice_constant": [3.92, 3.15], "includesElement__mendeleev_number": [69, 52], "includesElement__molar_heat_capacity": [25.86, 24.06], "includesElement__period": [6, 5], "includesElement__pettifor_number": [68, 55], "includesElement__specific_heat_capacity": [0.133, 0.251], "includesElement__vdw_radius": [213.0, 217.0], "includesElement__vdw_radius_alvarez": [229.0, 245.0], "includesElement__vdw_radius_mm3": [239.0], "includesElement__vdw_radius_uff": [275.4, 305.2], "includesElement__atomic_weight_uncertainty": [0.009, 0.01], "includesElement__c6_gb": [470.0, 1030.0], "includesElement__electronegativity_allen": [10.16, 8.71], "includesElement__en_allen": [10.16, 8.71], "includesElement__metallic_radius": [130.0], "includesElement__metallic_radius_c12": [139.0], "includesElement__thermal_conductivity": [71.6], "includesElement__vdw_radius_batsanov": [205.0, 210.0], "includesElement__abundance_sea": [0.01], "formula": ["Mo1Pt2"], "spacegroup": ["71"], "thermalConductivity": [14.0742], "icsd": ["105070"], "band_gap": [0.0], "density": [17.76605], "density_atomic": [15.14502], "deprecated": [false], "efermi": [8.292706], "energy_above_hull": [0.0], "energy_per_atom": [-43.41309], "formation_energy_per_atom": [-0.3972813], "homogeneous_poisson": [0.283], "is_gap_direct": [false], "is_magnetic": [false], "is_metal": [true], "is_stable": [true], "nelements": [2], "nsites": [3], "num_magnetic_sites": [0], "num_unique_magnetic_sites": [0], "theoretical": [false], "total_magnetization": [2e-07], "total_magnetization_normalized_formula_units": [2e-07], "total_magnetization_normalized_vol": [4.401887e-09], "uncorrected_energy_per_atom": [-43.41309], "universal_anisotropy": [0.436], "volume": [45.43506], "equilibrium_reaction_energy_per_atom": [-0.1585478]}