{"includesElement": ["", "Al", "Re"], "includesElement___series_id": [7, 8], "includesElement__abundance_crust": [82300.0, 0.0007], "includesElement__atomic_number": [13, 75], "includesElement__atomic_radius": [125.0, 135.0], "includesElement__atomic_radius_rahm": [239.0, 249.0], "includesElement__atomic_volume": [10.0, 8.85], "includesElement__atomic_weight": [26.98154, 186.207], "includesElement__covalent_radius_cordero": [121.0, 151.0], "includesElement__covalent_radius_pyykko": [126.0, 131.0], "includesElement__covalent_radius_pyykko_double": [113.0, 119.0], "includesElement__covalent_radius_pyykko_triple": [111.0, 110.0], "includesElement__density": [2.7, 20.8], "includesElement__dipole_polarizability": [57.8, 62.0], "includesElement__dipole_polarizability_unc": [1.0, 3.0], "includesElement__discovery_year": [1825, 1925], "includesElement__electron_affinity": [0.43283, 0.15], "includesElement__electronegativity_allred-rochow": [0.0002204586, 0.000209778], "includesElement__electronegativity_cottrell-sutton": [0.1666667, 0.1657737], "includesElement__electronegativity_ghosh": [0.150078, 0.2435164], "includesElement__electronegativity_gordy": [0.02777778, 0.02748092], "includesElement__electronegativity_mulliken": [3.209299, 3.99176], "includesElement__electronegativity_nagle": [0.3730192, 0.4833208], "includesElement__electronegativity_pauling": [1.61, 1.9], "includesElement__electronegativity_sanderson": [0.2360927, 1.174592], "includesElement__en_ghosh": [0.150078, 0.2435164], "includesElement__en_pauling": [1.61, 1.9], "includesElement__evaporation_heat": [284.1, 704.0], "includesElement__fusion_heat": [10.75, 34.0], "includesElement__glawe_number": [78, 58], "includesElement__group_id": [13, 7], "includesElement__heat_of_formation": [330.9, 774.0], "includesElement__is_radioactive": [false], "includesElement__lattice_constant": [4.05, 2.76], "includesElement__mendeleev_number": [82, 57], "includesElement__molar_heat_capacity": [24.2, 25.48], "includesElement__period": [3, 6], "includesElement__pettifor_number": [80, 59], "includesElement__specific_heat_capacity": [0.897, 0.137], "includesElement__vdw_radius": [184.0, 216.0], "includesElement__vdw_radius_alvarez": [225.0, 249.0], "includesElement__vdw_radius_mm3": [236.0, 237.0], "includesElement__vdw_radius_uff": [449.9, 295.4], "includesElement__abundance_sea": [0.002, 4e-06], "includesElement__atomic_weight_uncertainty": [7e-07, 0.001], "includesElement__c6_gb": [520.0, 663.0], "includesElement__covalent_radius_bragg": [135.0], "includesElement__electronegativity_allen": [9.539, 9.46], "includesElement__en_allen": [9.539, 9.46], "includesElement__metallic_radius": [125.0, 128.0], "includesElement__metallic_radius_c12": [143.0, 137.0], "includesElement__thermal_conductivity": [237.0, 48.0], "includesElement__vdw_radius_batsanov": [210.0, 205.0], "includesElement__c6": [528.0], "includesElement__is_monoisotopic": [true], "includesElement__vdw_radius_dreiding": [439.0], "includesElement__vdw_radius_truhlar": [184.0], "formula": ["Al1Re1"], "spacegroup": ["221"], "thermalConductivity": [9.0019], "icsd": ["58146"], "band_gap": [0.0], "density": [12.322], "density_atomic": [14.36487], "deprecated": [false], "efermi": [8.853928], "energy_above_hull": [0.3053621], "energy_per_atom": [-29.64819], "formation_energy_per_atom": [-0.0768328], "homogeneous_poisson": [0.39], "is_gap_direct": [false], "is_magnetic": [false], "is_metal": [true], "is_stable": [false], "nelements": [2], "nsites": [2], "num_magnetic_sites": [0], "num_unique_magnetic_sites": [0], "theoretical": [false], "total_magnetization": [0.006314], "total_magnetization_normalized_formula_units": [0.006314], "total_magnetization_normalized_vol": [0.0002197723], "uncorrected_energy_per_atom": [-8.105469], "universal_anisotropy": [28.353], "volume": [28.72974]}