{"includesElement": ["", "Ba", "Be"], "includesElement___series_id": [4], "includesElement__abundance_crust": [425.0, 2.8], "includesElement__atomic_number": [56, 4], "includesElement__atomic_radius": [215.0, 105.0], "includesElement__atomic_radius_rahm": [293.0, 219.0], "includesElement__atomic_volume": [39.0, 5.0], "includesElement__atomic_weight": [137.327, 9.012183], "includesElement__covalent_radius_cordero": [215.0, 96.0], "includesElement__covalent_radius_pyykko": [196.0, 102.0], "includesElement__covalent_radius_pyykko_double": [161.0, 90.0], "includesElement__covalent_radius_pyykko_triple": [149.0, 85.0], "includesElement__density": [3.62, 1.85], "includesElement__dipole_polarizability": [272.0, 37.74], "includesElement__dipole_polarizability_unc": [10.0, 0.03], "includesElement__discovery_year": [1808, 1798], "includesElement__electron_affinity": [0.14462, -2.4], "includesElement__electronegativity_allred-rochow": [7.418784e-05, 0.0001874279], "includesElement__electronegativity_cottrell-sutton": [0.1205853, 0.1382666], "includesElement__electronegativity_ghosh": [0.1586786, 0.144986], "includesElement__electronegativity_gordy": [0.01454082, 0.01911765], "includesElement__electronegativity_mulliken": [2.678142, 3.461349], "includesElement__electronegativity_nagle": [0.1944556, 0.3756148], "includesElement__electronegativity_pauling": [0.89, 1.57], "includesElement__electronegativity_sanderson": [0.3032951, 0.1268473], "includesElement__en_ghosh": [0.1586786, 0.144986], "includesElement__en_pauling": [0.89, 1.57], "includesElement__evaporation_heat": [142.0, 309.0], "includesElement__fusion_heat": [7.66, 12.21], "includesElement__glawe_number": [14, 77], "includesElement__group_id": [2], "includesElement__heat_of_formation": [179.1, 324.0], "includesElement__is_radioactive": [false], "includesElement__lattice_constant": [5.02, 2.29], "includesElement__mendeleev_number": [9, 75], "includesElement__molar_heat_capacity": [28.07, 16.443], "includesElement__period": [6, 2], "includesElement__pettifor_number": [14, 77], "includesElement__specific_heat_capacity": [0.204, 1.825], "includesElement__vdw_radius": [268.0, 153.0], "includesElement__vdw_radius_alvarez": [303.0, 198.0], "includesElement__vdw_radius_mm3": [307.0, 223.0], "includesElement__vdw_radius_uff": [370.3, 274.5], "includesElement__abundance_sea": [0.013, 5.6e-06], "includesElement__atomic_weight_uncertainty": [0.007, 5e-07], "includesElement__c6_gb": [5540.0, 214.0], "includesElement__covalent_radius_bragg": [210.0, 115.0], "includesElement__electronegativity_allen": [5.211, 9.323], "includesElement__en_allen": [5.211, 9.323], "includesElement__metallic_radius": [198.0, 89.0], "includesElement__metallic_radius_c12": [222.0, 112.0], "includesElement__vdw_radius_batsanov": [270.0, 190.0], "includesElement__vdw_radius_truhlar": [268.0, 153.0], "includesElement__thermal_conductivity": [201.0], "includesElement__c6": [227.0], "includesElement__is_monoisotopic": [true], "formula": ["Ba2Be26"], "spacegroup": ["226"], "thermalConductivity": [11.4948], "icsd": ["58633"], "band_gap": [0.0], "density": [2.802879], "density_atomic": [10.7691], "deprecated": [false], "efermi": [3.488394], "energy_above_hull": [0.0383603], "energy_per_atom": [-3.571021], "formation_energy_per_atom": [0.0383603], "is_gap_direct": [false], "is_magnetic": [false], "is_metal": [true], "is_stable": [false], "nelements": [2], "nsites": [28], "num_magnetic_sites": [0], "num_unique_magnetic_sites": [0], "theoretical": [false], "total_magnetization": [3e-07], "total_magnetization_normalized_formula_units": [1.5e-07], "total_magnetization_normalized_vol": [9.949096e-10], "uncorrected_energy_per_atom": [-3.571021], "volume": [301.5349]}