{"includesElement": ["", "P", "Fe", "Ce"], "includesElement___series_id": [1, 8, 9], "includesElement__abundance_crust": [1050.0, 56300.0, 66.5], "includesElement__atomic_number": [15, 26, 58], "includesElement__atomic_radius": [100.0, 140.0, 185.0], "includesElement__atomic_radius_rahm": [223.0, 237.0, 282.0], "includesElement__atomic_volume": [17.0, 7.1, 21.0], "includesElement__atomic_weight": [30.97376, 55.845, 140.116], "includesElement__covalent_radius_cordero": [107.0, 142.0, 204.0], "includesElement__covalent_radius_pyykko": [111.0, 116.0, 163.0], "includesElement__covalent_radius_pyykko_double": [102.0, 109.0, 137.0], "includesElement__covalent_radius_pyykko_triple": [94.0, 102.0, 131.0], "includesElement__density": [1.823, 7.87, 6.77], "includesElement__dipole_polarizability": [25.0, 62.0, 205.0], "includesElement__dipole_polarizability_unc": [1.0, 4.0, 20.0], "includesElement__discovery_year": [1669, 1803], "includesElement__electron_affinity": [0.746607, 0.151, 0.65], "includesElement__electronegativity_allred-rochow": [0.0003895788, 0.0002786861, 0.0001129135], "includesElement__electronegativity_cottrell-sutton": [0.2079501, 0.1797987, 0.1356647], "includesElement__electronegativity_ghosh": [0.206931, 0.1392532, 0.16761], "includesElement__electronegativity_gordy": [0.04324324, 0.03232759, 0.01840491], "includesElement__electronegativity_mulliken": [5.616646, 4.026734, 3.0943], "includesElement__electronegativity_nagle": [0.5848035, 0.5053195, 0.2692167], "includesElement__electronegativity_pauling": [2.19, 1.83, 1.12], "includesElement__electronegativity_sanderson": [0.4510269, 0.748727, 0.5356179], "includesElement__en_ghosh": [0.206931, 0.1392532, 0.16761], "includesElement__en_pauling": [2.19, 1.83, 1.12], "includesElement__evaporation_heat": [49.8, 340.0, 398.0], "includesElement__fusion_heat": [2.51, 13.8, 5.2], "includesElement__glawe_number": [89, 71, 31], "includesElement__group_id": [15, 8], "includesElement__heat_of_formation": [316.5, 415.5, 420.1], "includesElement__is_radioactive": [false], "includesElement__lattice_constant": [7.17, 2.87, 5.16], "includesElement__mendeleev_number": [94, 59, 15], "includesElement__molar_heat_capacity": [23.824, 25.1, 26.94], "includesElement__period": [3, 4, 6], "includesElement__pettifor_number": [90, 61, 32], "includesElement__specific_heat_capacity": [0.769, 0.449, 0.192], "includesElement__vdw_radius": [180.0, 204.0, 242.0], "includesElement__vdw_radius_alvarez": [190.0, 244.0, 288.0], "includesElement__vdw_radius_mm3": [222.0, 223.0, 274.0], "includesElement__vdw_radius_uff": [414.7, 291.2, 355.6], "includesElement__abundance_sea": [0.06, 0.002, 1.2e-06], "includesElement__atomic_weight_uncertainty": [5e-09, 0.002, 0.001], "includesElement__c6_gb": [187.0, 548.0, 3480.0], "includesElement__electronegativity_allen": [13.33, 10.64], "includesElement__en_allen": [13.33, 10.64], "includesElement__metallic_radius": [110.0, 117.0], "includesElement__metallic_radius_c12": [128.0, 126.0], "includesElement__vdw_radius_batsanov": [195.0, 205.0], "includesElement__c6": [185.0, 482.0], "includesElement__is_monoisotopic": [true], "includesElement__vdw_radius_dreiding": [415.0], "includesElement__gas_basicity": [604.8, 731.1], "includesElement__proton_affinity": [626.8, 754.0], "includesElement__vdw_radius_bondi": [180.0], "includesElement__covalent_radius_bragg": [140.0], "includesElement__thermal_conductivity": [80.4, 11.3], "formula": ["Ce1Fe4P12"], "spacegroup": ["204"], "thermalConductivity": [8.93987], "icsd": ["52852"], "band_gap": [0.5209], "density": [5.242249], "density_atomic": [13.69862], "deprecated": [false], "efermi": [9.091841], "energy_above_hull": [0.0], "energy_per_atom": [-6.812036], "formation_energy_per_atom": [-0.6471707], "homogeneous_poisson": [0.188], "is_gap_direct": [false], "is_magnetic": [false], "is_metal": [false], "is_stable": [true], "nelements": [3], "nsites": [17], "num_magnetic_sites": [0], "num_unique_magnetic_sites": [0], "theoretical": [false], "total_magnetization": [2e-07], "total_magnetization_normalized_formula_units": [2e-07], "total_magnetization_normalized_vol": [8.58824e-10], "uncorrected_energy_per_atom": [-12.13718], "universal_anisotropy": [0.018], "volume": [232.8766], "cbm": [9.437], "equilibrium_reaction_energy_per_atom": [-0.07103013], "vbm": [8.9161]}