{"includesElement": ["", "N", "B", "C"], "includesElement___series_id": [1, 5], "includesElement__abundance_crust": [19.0, 10.0, 200.0], "includesElement__atomic_number": [7, 5, 6], "includesElement__atomic_radius": [65.0, 85.0, 70.0], "includesElement__atomic_radius_rahm": [179.0, 205.0, 190.0], "includesElement__atomic_volume": [17.3, 4.6, 5.3], "includesElement__atomic_weight": [14.007, 10.81, 12.011], "includesElement__covalent_radius_cordero": [71.0, 84.0, 73.0], "includesElement__covalent_radius_pyykko": [71.0, 85.0, 75.0], "includesElement__covalent_radius_pyykko_double": [60.0, 78.0, 67.0], "includesElement__covalent_radius_pyykko_triple": [54.0, 73.0, 60.0], "includesElement__density": [0.001145, 2.34, 2.2], "includesElement__dipole_polarizability": [7.4, 20.5, 11.3], "includesElement__dipole_polarizability_unc": [0.2, 0.1], "includesElement__discovery_year": [1772, 1808], "includesElement__electron_affinity": [-1.4, 0.279723, 1.262119], "includesElement__electronegativity_allred-rochow": [0.000773656, 0.0003598616, 0.0005777778], "includesElement__electronegativity_cottrell-sutton": [0.2343706, 0.1748949, 0.2081666], "includesElement__electronegativity_ghosh": [0.26493, 0.184886, 0.224776], "includesElement__electronegativity_gordy": [0.05492958, 0.03058824, 0.04333333], "includesElement__electronegativity_mulliken": [6.567065, 4.288871, 6.261208], "includesElement__electronegativity_nagle": [0.8774979, 0.5269739, 0.7073926], "includesElement__electronegativity_pauling": [3.04, 2.04, 2.55], "includesElement__electronegativity_sanderson": [0.577482, 0.2546274, 0.427525], "includesElement__en_ghosh": [0.26493, 0.184886, 0.224776], "includesElement__en_pauling": [3.04, 2.04, 2.55], "includesElement__glawe_number": [88, 86, 87], "includesElement__group_id": [15, 13, 14], "includesElement__heat_of_formation": [472.44, 565.0, 716.87], "includesElement__is_radioactive": [false], "includesElement__lattice_constant": [4.039, 8.73, 3.57], "includesElement__mendeleev_number": [93, 81, 87], "includesElement__molar_heat_capacity": [29.124, 11.087, 8.517], "includesElement__period": [2], "includesElement__pettifor_number": [100, 86, 95], "includesElement__specific_heat_capacity": [1.04, 1.026, 0.709], "includesElement__vdw_radius": [155.0, 192.0, 170.0], "includesElement__vdw_radius_alvarez": [166.0, 191.0, 177.0], "includesElement__vdw_radius_mm3": [193.0, 215.0, 204.0], "includesElement__vdw_radius_uff": [366.0, 408.3, 385.1], "includesElement__abundance_sea": [0.5, 4.44, 28.0], "includesElement__c6_gb": [25.7, 99.2, 47.9], "includesElement__covalent_radius_bragg": [65.0, 77.0], "includesElement__electronegativity_allen": [18.13, 12.13, 15.05], "includesElement__en_allen": [18.13, 12.13, 15.05], "includesElement__metallic_radius_c12": [53.0, 98.0, 86.0], "includesElement__thermal_conductivity": [0.026, 27.4, 1.59], "includesElement__vdw_radius_batsanov": [160.0, 180.0, 170.0], "includesElement__c6": [24.2, 99.5, 46.6], "includesElement__vdw_radius_dreiding": [366.21, 402.0, 389.83], "includesElement__gas_basicity": [318.7], "includesElement__proton_affinity": [342.2], "includesElement__vdw_radius_bondi": [155.0, 170.0], "includesElement__vdw_radius_rt": [164.0, 177.0], "includesElement__evaporation_heat": [504.5], "includesElement__fusion_heat": [23.6], "includesElement__metallic_radius": [80.0], "includesElement__vdw_radius_truhlar": [192.0], "formula": ["B2C4N2"], "spacegroup": ["17"], "thermalConductivity": [119.645], "icsd": ["93040"], "band_gap": [2.1099], "density": [3.418968], "density_atomic": [5.930096], "deprecated": [false], "efermi": [8.976463], "energy_above_hull": [0.5458347], "energy_per_atom": [-8.556012], "formation_energy_per_atom": [-0.1872616], "homogeneous_poisson": [0.093], "is_gap_direct": [true], "is_magnetic": [false], "is_metal": [false], "is_stable": [false], "nelements": [3], "nsites": [8], "num_magnetic_sites": [0], "num_unique_magnetic_sites": [0], "theoretical": [true], "total_magnetization": [0.0003188], "total_magnetization_normalized_formula_units": [0.0001594], "total_magnetization_normalized_vol": [6.719959e-06], "uncorrected_energy_per_atom": [-8.465762], "universal_anisotropy": [0.064], "volume": [47.44077], "cbm": [11.0207], "e_electronic": [5.652518], "e_ionic": [1.069969], "e_total": [6.722487], "n": [2.377502], "vbm": [8.9108], "e_ij_max": [0.81214]}