{"includesElement": ["", "Hf", "B"], "includesElement___series_id": [8, 5], "includesElement__abundance_crust": [3.0, 10.0], "includesElement__atomic_number": [72, 5], "includesElement__atomic_radius": [155.0, 85.0], "includesElement__atomic_radius_rahm": [264.0, 205.0], "includesElement__atomic_volume": [13.6, 4.6], "includesElement__atomic_weight": [178.49, 10.81], "includesElement__covalent_radius_cordero": [175.0, 84.0], "includesElement__covalent_radius_pyykko": [152.0, 85.0], "includesElement__covalent_radius_pyykko_double": [128.0, 78.0], "includesElement__covalent_radius_pyykko_triple": [122.0, 73.0], "includesElement__density": [13.3, 2.34], "includesElement__dipole_polarizability": [103.0, 20.5], "includesElement__dipole_polarizability_unc": [6.0, 0.1], "includesElement__discovery_year": [1923, 1808], "includesElement__electron_affinity": [0.014, 0.279723], "includesElement__electronegativity_allred-rochow": [0.00013634, 0.0003598616], "includesElement__electronegativity_cottrell-sutton": [0.1439572, 0.1748949], "includesElement__electronegativity_ghosh": [0.229987, 0.184886], "includesElement__electronegativity_gordy": [0.02072368, 0.03058824], "includesElement__electronegativity_mulliken": [3.419535, 4.288871], "includesElement__electronegativity_nagle": [0.3386421, 0.5269739], "includesElement__electronegativity_pauling": [1.3, 2.04], "includesElement__electronegativity_sanderson": [0.7352125, 0.2546274], "includesElement__en_ghosh": [0.229987, 0.184886], "includesElement__en_pauling": [1.3, 2.04], "includesElement__evaporation_heat": [575.0, 504.5], "includesElement__fusion_heat": [25.1, 23.6], "includesElement__glawe_number": [50, 86], "includesElement__group_id": [4, 13], "includesElement__heat_of_formation": [618.4, 565.0], "includesElement__is_radioactive": [false], "includesElement__lattice_constant": [3.2, 8.73], "includesElement__mendeleev_number": [45, 81], "includesElement__molar_heat_capacity": [25.73, 11.087], "includesElement__period": [6, 2], "includesElement__pettifor_number": [50, 86], "includesElement__specific_heat_capacity": [0.144, 1.026], "includesElement__vdw_radius": [223.0, 192.0], "includesElement__vdw_radius_alvarez": [263.0, 191.0], "includesElement__vdw_radius_mm3": [253.0, 215.0], "includesElement__vdw_radius_uff": [314.1, 408.3], "includesElement__abundance_sea": [7e-06, 4.44], "includesElement__atomic_weight_uncertainty": [0.02], "includesElement__c6_gb": [1040.0, 99.2], "includesElement__electronegativity_allen": [6.83, 12.13], "includesElement__en_allen": [6.83, 12.13], "includesElement__metallic_radius": [144.0, 80.0], "includesElement__metallic_radius_c12": [159.0, 98.0], "includesElement__thermal_conductivity": [23.0, 27.4], "includesElement__vdw_radius_batsanov": [225.0, 180.0], "includesElement__c6": [99.5], "includesElement__vdw_radius_dreiding": [402.0], "includesElement__vdw_radius_truhlar": [192.0], "formula": ["B1Hf1"], "spacegroup": ["225"], "thermalConductivity": [27.0666], "icsd": ["614418"], "band_gap": [0.0], "density": [11.10498], "density_atomic": [14.15319], "deprecated": [false], "efermi": [5.472418], "energy_above_hull": [0.3499171], "energy_per_atom": [-26.7126], "formation_energy_per_atom": [-0.4637186], "homogeneous_poisson": [0.277], "is_gap_direct": [false], "is_magnetic": [false], "is_metal": [true], "is_stable": [false], "nelements": [2], "nsites": [2], "num_magnetic_sites": [0], "num_unique_magnetic_sites": [0], "theoretical": [false], "total_magnetization": [0.0009076], "total_magnetization_normalized_formula_units": [0.0009076], "total_magnetization_normalized_vol": [3.206345e-05], "uncorrected_energy_per_atom": [-8.731788], "universal_anisotropy": [1.435], "volume": [28.30638]}