{"includesElement": ["", "Pb", "Yb"], "includesElement___series_id": [7, 9], "includesElement__abundance_crust": [14.0, 3.2], "includesElement__atomic_number": [82, 70], "includesElement__atomic_radius": [180.0, 175.0], "includesElement__atomic_radius_rahm": [249.0, 277.0], "includesElement__atomic_volume": [18.3, 24.8], "includesElement__atomic_weight": [207.2, 173.045], "includesElement__covalent_radius_cordero": [146.0, 187.0], "includesElement__covalent_radius_pyykko": [144.0, 170.0], "includesElement__covalent_radius_pyykko_double": [135.0, 129.0], "includesElement__covalent_radius_pyykko_triple": [137.0], "includesElement__density": [11.3, 6.9], "includesElement__dipole_polarizability": [47.0, 139.0], "includesElement__dipole_polarizability_unc": [3.0, 6.0], "includesElement__electron_affinity": [0.3567432, -0.02], "includesElement__electronegativity_allred-rochow": [0.000272473, 9.861592e-05], "includesElement__electronegativity_cottrell-sutton": [0.1980811, 0.1294786], "includesElement__electronegativity_ghosh": [0.177911, 0.22119], "includesElement__electronegativity_gordy": [0.03923611, 0.01676471], "includesElement__electronegativity_mulliken": [3.886711, 3.11708], "includesElement__electronegativity_nagle": [0.4398663, 0.4864465], "includesElement__electronegativity_pauling": [1.8], "includesElement__electronegativity_sanderson": [0.9313226, 0.5176678], "includesElement__en_ghosh": [0.177911, 0.22119], "includesElement__en_pauling": [1.8], "includesElement__evaporation_heat": [177.8, 159.0], "includesElement__fusion_heat": [4.77, 3.35], "includesElement__glawe_number": [82, 18], "includesElement__group_id": [14], "includesElement__heat_of_formation": [195.2, 155.6], "includesElement__is_radioactive": [false], "includesElement__lattice_constant": [4.95, 5.49], "includesElement__mendeleev_number": [91, 39], "includesElement__molar_heat_capacity": [26.84, 26.74], "includesElement__period": [6], "includesElement__pettifor_number": [82, 17], "includesElement__specific_heat_capacity": [0.13, 0.155], "includesElement__vdw_radius": [202.0, 226.0], "includesElement__vdw_radius_alvarez": [260.0, 280.0], "includesElement__vdw_radius_mm3": [274.0, 279.0], "includesElement__vdw_radius_uff": [429.7, 335.5], "includesElement__abundance_sea": [3e-05, 8.2e-07], "includesElement__atomic_weight_uncertainty": [0.1, 0.01], "includesElement__c6_gb": [534.0, 1910.0], "includesElement__electronegativity_allen": [10.97], "includesElement__en_allen": [10.97], "includesElement__metallic_radius": [150.0], "includesElement__metallic_radius_c12": [170.0], "includesElement__thermal_conductivity": [35.3], "includesElement__vdw_radius_batsanov": [230.0], "includesElement__vdw_radius_bondi": [202.0], "includesElement__discovery_year": [1878], "formula": ["Pb3Yb1"], "spacegroup": ["221"], "thermalConductivity": [2.73178], "icsd": ["105646"], "band_gap": [0.0], "density": [11.10017], "density_atomic": [29.7187], "deprecated": [false], "efermi": [6.365011], "is_gap_direct": [false], "is_magnetic": [false], "is_metal": [true], "is_stable": [false], "nelements": [2], "nsites": [4], "num_magnetic_sites": [0], "num_unique_magnetic_sites": [0], "theoretical": [false], "total_magnetization": [0.0040393], "total_magnetization_normalized_formula_units": [0.0040393], "total_magnetization_normalized_vol": [3.397945e-05], "volume": [118.8748]}