{"includesElement": ["", "Al", "Zr", "C"], "includesElement___series_id": [7, 8, 1], "includesElement__abundance_crust": [82300.0, 165.0, 200.0], "includesElement__atomic_number": [13, 40, 6], "includesElement__atomic_radius": [125.0, 155.0, 70.0], "includesElement__atomic_radius_rahm": [239.0, 269.0, 190.0], "includesElement__atomic_volume": [10.0, 14.1, 5.3], "includesElement__atomic_weight": [26.98154, 91.224, 12.011], "includesElement__covalent_radius_cordero": [121.0, 175.0, 73.0], "includesElement__covalent_radius_pyykko": [126.0, 154.0, 75.0], "includesElement__covalent_radius_pyykko_double": [113.0, 127.0, 67.0], "includesElement__covalent_radius_pyykko_triple": [111.0, 121.0, 60.0], "includesElement__density": [2.7, 6.52, 2.2], "includesElement__dipole_polarizability": [57.8, 112.0, 11.3], "includesElement__dipole_polarizability_unc": [1.0, 13.0, 0.2], "includesElement__discovery_year": [1825, 1789], "includesElement__electron_affinity": [0.43283, 0.426, 1.262119], "includesElement__electronegativity_allred-rochow": [0.0002204586, 0.0001328217, 0.0005777778], "includesElement__electronegativity_cottrell-sutton": [0.1666667, 0.1430194, 0.2081666], "includesElement__electronegativity_ghosh": [0.150078, 0.1248887, 0.224776], "includesElement__electronegativity_gordy": [0.02777778, 0.02045455, 0.04333333], "includesElement__electronegativity_mulliken": [3.209299, 3.52995, 6.261208], "includesElement__electronegativity_nagle": [0.3730192, 0.3293169, 0.7073926], "includesElement__electronegativity_pauling": [1.61, 1.33, 2.55], "includesElement__electronegativity_sanderson": [0.2360927, 0.4744467, 0.427525], "includesElement__en_ghosh": [0.150078, 0.1248887, 0.224776], "includesElement__en_pauling": [1.61, 1.33, 2.55], "includesElement__evaporation_heat": [284.1, 567.0], "includesElement__fusion_heat": [10.75, 19.2], "includesElement__glawe_number": [78, 49, 87], "includesElement__group_id": [13, 4, 14], "includesElement__heat_of_formation": [330.9, 610.0, 716.87], "includesElement__is_radioactive": [false], "includesElement__lattice_constant": [4.05, 3.23, 3.57], "includesElement__mendeleev_number": [82, 44, 87], "includesElement__molar_heat_capacity": [24.2, 25.36, 8.517], "includesElement__period": [3, 5, 2], "includesElement__pettifor_number": [80, 49, 95], "includesElement__specific_heat_capacity": [0.897, 0.278, 0.709], "includesElement__vdw_radius": [184.0, 223.0, 170.0], "includesElement__vdw_radius_alvarez": [225.0, 252.0, 177.0], "includesElement__vdw_radius_mm3": [236.0, 254.0, 204.0], "includesElement__vdw_radius_uff": [449.9, 312.4, 385.1], "includesElement__abundance_sea": [0.002, 3e-05, 28.0], "includesElement__atomic_weight_uncertainty": [7e-07, 0.002], "includesElement__c6_gb": [520.0, 1360.0, 47.9], "includesElement__covalent_radius_bragg": [135.0, 77.0], "includesElement__electronegativity_allen": [9.539, 7.808, 15.05], "includesElement__en_allen": [9.539, 7.808, 15.05], "includesElement__metallic_radius": [125.0, 145.0], "includesElement__metallic_radius_c12": [143.0, 160.0, 86.0], "includesElement__thermal_conductivity": [237.0, 22.7, 1.59], "includesElement__vdw_radius_batsanov": [210.0, 230.0, 170.0], "includesElement__c6": [528.0, 46.6], "includesElement__is_monoisotopic": [true], "includesElement__vdw_radius_dreiding": [439.0, 389.83], "includesElement__vdw_radius_truhlar": [184.0], "includesElement__vdw_radius_bondi": [170.0], "includesElement__vdw_radius_rt": [177.0], "formula": ["Al2C2Zr4"], "spacegroup": ["194"], "thermalConductivity": [17.851], "icsd": ["157761"], "band_gap": [0.0], "density": [5.285292], "density_atomic": [17.39309], "deprecated": [false], "efermi": [5.228719], "energy_above_hull": [0.0137562], "energy_per_atom": [-8.160864], "formation_energy_per_atom": [-0.6434535], "homogeneous_poisson": [0.201], "is_gap_direct": [false], "is_magnetic": [false], "is_metal": [true], "is_stable": [false], "nelements": [3], "nsites": [8], "num_magnetic_sites": [0], "num_unique_magnetic_sites": [0], "theoretical": [true], "total_magnetization": [1e-07], "total_magnetization_normalized_formula_units": [5e-08], "total_magnetization_normalized_vol": [7.186764e-10], "uncorrected_energy_per_atom": [-16.29769], "universal_anisotropy": [0.018], "volume": [139.1447]}