{"includesElement": ["", "Sb", "Sc"], "includesElement___series_id": [5, 8], "includesElement__abundance_crust": [0.2, 22.0], "includesElement__atomic_number": [51, 21], "includesElement__atomic_radius": [145.0, 160.0], "includesElement__atomic_radius_rahm": [246.0, 263.0], "includesElement__atomic_volume": [18.4, 15.0], "includesElement__atomic_weight": [121.76, 44.95591], "includesElement__covalent_radius_cordero": [139.0, 170.0], "includesElement__covalent_radius_pyykko": [140.0, 148.0], "includesElement__covalent_radius_pyykko_double": [133.0, 116.0], "includesElement__covalent_radius_pyykko_triple": [127.0, 114.0], "includesElement__density": [6.68, 2.99], "includesElement__dipole_polarizability": [43.0, 97.0], "includesElement__dipole_polarizability_unc": [2.0, 10.0], "includesElement__electron_affinity": [1.046, 0.188], "includesElement__electronegativity_allred-rochow": [0.0003214286, 0.0001369613], "includesElement__electronegativity_cottrell-sutton": [0.212132, 0.1423737], "includesElement__electronegativity_ghosh": [0.1918774, 0.1193833], "includesElement__electronegativity_gordy": [0.045, 0.02027027], "includesElement__electronegativity_mulliken": [4.827195, 3.374745], "includesElement__electronegativity_nagle": [0.4880907, 0.3138941], "includesElement__electronegativity_pauling": [2.05, 1.36], "includesElement__electronegativity_sanderson": [0.7762722, 0.3038674], "includesElement__en_ghosh": [0.1918774, 0.1193833], "includesElement__en_pauling": [2.05, 1.36], "includesElement__evaporation_heat": [195.2, 332.7], "includesElement__fusion_heat": [20.08, 15.8], "includesElement__glawe_number": [91, 48], "includesElement__group_id": [15, 3], "includesElement__heat_of_formation": [264.4, 377.8], "includesElement__is_radioactive": [false], "includesElement__lattice_constant": [4.51, 3.31], "includesElement__mendeleev_number": [96, 11], "includesElement__molar_heat_capacity": [25.23, 25.52], "includesElement__period": [5, 4], "includesElement__pettifor_number": [88, 20], "includesElement__specific_heat_capacity": [0.207, 0.568], "includesElement__vdw_radius": [206.0, 215.0], "includesElement__vdw_radius_alvarez": [247.0, 258.0], "includesElement__vdw_radius_mm3": [252.0, 261.0], "includesElement__vdw_radius_uff": [442.0, 329.5], "includesElement__abundance_sea": [0.00024, 6e-07], "includesElement__atomic_weight_uncertainty": [0.001, 5e-06], "includesElement__c6_gb": [504.0, 1570.0], "includesElement__covalent_radius_bragg": [140.0], "includesElement__electronegativity_allen": [11.74, 7.042], "includesElement__en_allen": [11.74, 7.042], "includesElement__metallic_radius": [139.0, 144.0], "includesElement__metallic_radius_c12": [166.0, 162.0], "includesElement__thermal_conductivity": [24.43, 15.8], "includesElement__vdw_radius_batsanov": [220.0, 230.0], "includesElement__c6": [492.0, 1383.0], "includesElement__vdw_radius_dreiding": [435.0], "includesElement__vdw_radius_truhlar": [206.0], "includesElement__discovery_year": [1879], "includesElement__is_monoisotopic": [true], "includesElement__gas_basicity": [892.0], "includesElement__proton_affinity": [914.0], "formula": ["Sb1Sc1"], "spacegroup": ["225"], "thermalConductivity": [10.2594], "icsd": ["1335"], "band_gap": [0.0], "density": [5.415866], "density_atomic": [25.55808], "deprecated": [false], "efermi": [6.353159], "energy_above_hull": [0.0], "energy_per_atom": [-19.65639], "formation_energy_per_atom": [-1.10399], "homogeneous_poisson": [0.281], "is_gap_direct": [false], "is_magnetic": [false], "is_metal": [true], "is_stable": [true], "nelements": [2], "nsites": [2], "num_magnetic_sites": [0], "num_unique_magnetic_sites": [0], "theoretical": [false], "total_magnetization": [0.0], "total_magnetization_normalized_formula_units": [0.0], "total_magnetization_normalized_vol": [0.0], "uncorrected_energy_per_atom": [-19.65639], "universal_anisotropy": [1.467], "volume": [51.11617], "equilibrium_reaction_energy_per_atom": [-0.3399163]}