{"includesElement": ["", "Sn", "Pd", "Ho"], "includesElement___series_id": [7, 8, 9], "includesElement__abundance_crust": [2.3, 0.015, 1.3], "includesElement__atomic_number": [50, 46, 67], "includesElement__atomic_radius": [145.0, 140.0, 175.0], "includesElement__atomic_radius_rahm": [248.0, 215.0, 273.0], "includesElement__atomic_volume": [16.3, 8.9, 18.7], "includesElement__atomic_weight": [118.71, 106.42, 164.9303], "includesElement__covalent_radius_cordero": [139.0, 192.0], "includesElement__covalent_radius_pyykko": [140.0, 120.0, 166.0], "includesElement__covalent_radius_pyykko_double": [130.0, 117.0, 133.0], "includesElement__covalent_radius_pyykko_triple": [132.0, 112.0], "includesElement__density": [7.287, 12.0, 8.8], "includesElement__dipole_polarizability": [53.0, 26.14, 156.0], "includesElement__dipole_polarizability_unc": [6.0, 0.1, 10.0], "includesElement__electron_affinity": [1.112067, 0.562], "includesElement__electronegativity_allred-rochow": [0.0002882653, 0.0004756944, 0.0001034258], "includesElement__electronegativity_cottrell-sutton": [0.2008909, 0.2389212, 0.1310293], "includesElement__electronegativity_ghosh": [0.178052, 0.1440276, 0.207795], "includesElement__electronegativity_gordy": [0.04035714, 0.05708333, 0.01716867], "includesElement__electronegativity_mulliken": [4.227992, 4.44943, 3.01075], "includesElement__electronegativity_nagle": [0.4225986, 0.7259357, 0.4367902], "includesElement__electronegativity_pauling": [1.96, 2.2, 1.23], "includesElement__electronegativity_sanderson": [0.7622797, 1.124263, 0.5434919], "includesElement__en_ghosh": [0.178052, 0.1440276, 0.207795], "includesElement__en_pauling": [1.96, 2.2, 1.23], "includesElement__evaporation_heat": [296.0, 372.4, 301.0], "includesElement__fusion_heat": [7.07, 17.24], "includesElement__glawe_number": [83, 65, 23], "includesElement__group_id": [14, 10], "includesElement__heat_of_formation": [301.2, 376.6, 300.6], "includesElement__is_radioactive": [false], "includesElement__lattice_constant": [5.82, 3.89, 3.58], "includesElement__mendeleev_number": [90, 68, 33], "includesElement__molar_heat_capacity": [26.99, 25.98, 27.15], "includesElement__period": [5, 6], "includesElement__pettifor_number": [83, 69, 24], "includesElement__specific_heat_capacity": [0.227, 0.246, 0.165], "includesElement__vdw_radius": [217.0, 210.0, 230.0], "includesElement__vdw_radius_alvarez": [242.0, 215.0, 281.0], "includesElement__vdw_radius_mm3": [259.0, 237.0, 267.0], "includesElement__vdw_radius_uff": [439.2, 289.9, 340.9], "includesElement__abundance_sea": [4e-06, 2.2e-07], "includesElement__atomic_weight_uncertainty": [0.007, 0.01, 2e-05], "includesElement__c6_gb": [715.0, 628.0, 2280.0], "includesElement__covalent_radius_bragg": [140.0], "includesElement__electronegativity_allen": [10.79, 9.402], "includesElement__en_allen": [10.79, 9.402], "includesElement__metallic_radius": [142.0, 128.0], "includesElement__metallic_radius_c12": [163.0, 137.0], "includesElement__thermal_conductivity": [66.8, 71.8], "includesElement__vdw_radius_batsanov": [225.0, 205.0], "includesElement__c6": [659.0], "includesElement__vdw_radius_dreiding": [447.0], "includesElement__vdw_radius_bondi": [217.0], "includesElement__discovery_year": [1803, 1878], "includesElement__gas_basicity": [673.4], "includesElement__proton_affinity": [696.0], "includesElement__is_monoisotopic": [true], "formula": ["Ho1Pd2Sn1"], "spacegroup": ["225"], "thermalConductivity": [1.92516], "icsd": ["104437"], "band_gap": [0.0], "density": [10.82607], "density_atomic": [19.03795], "deprecated": [false], "efermi": [6.4764], "energy_above_hull": [0.0], "energy_per_atom": [-5.623157], "formation_energy_per_atom": [-0.8814031], "homogeneous_poisson": [0.414], "is_gap_direct": [false], "is_magnetic": [false], "is_metal": [true], "is_stable": [true], "nelements": [3], "nsites": [4], "num_magnetic_sites": [0], "num_unique_magnetic_sites": [0], "theoretical": [false], "total_magnetization": [7e-07], "total_magnetization_normalized_formula_units": [7e-07], "total_magnetization_normalized_vol": [9.192165e-09], "uncorrected_energy_per_atom": [-26.78977], "universal_anisotropy": [0.019], "volume": [76.15181], "equilibrium_reaction_energy_per_atom": [-0.03765326]}