{"includesElement": ["", "Fe", "Pd"], "includesElement___series_id": [8], "includesElement__abundance_crust": [56300.0, 0.015], "includesElement__atomic_number": [26, 46], "includesElement__atomic_radius": [140.0], "includesElement__atomic_radius_rahm": [237.0, 215.0], "includesElement__atomic_volume": [7.1, 8.9], "includesElement__atomic_weight": [55.845, 106.42], "includesElement__covalent_radius_cordero": [142.0, 139.0], "includesElement__covalent_radius_pyykko": [116.0, 120.0], "includesElement__covalent_radius_pyykko_double": [109.0, 117.0], "includesElement__covalent_radius_pyykko_triple": [102.0, 112.0], "includesElement__density": [7.87, 12.0], "includesElement__dipole_polarizability": [62.0, 26.14], "includesElement__dipole_polarizability_unc": [4.0, 0.1], "includesElement__electron_affinity": [0.151, 0.562], "includesElement__electronegativity_allred-rochow": [0.0002786861, 0.0004756944], "includesElement__electronegativity_cottrell-sutton": [0.1797987, 0.2389212], "includesElement__electronegativity_ghosh": [0.1392532, 0.1440276], "includesElement__electronegativity_gordy": [0.03232759, 0.05708333], "includesElement__electronegativity_mulliken": [4.026734, 4.44943], "includesElement__electronegativity_nagle": [0.5053195, 0.7259357], "includesElement__electronegativity_pauling": [1.83, 2.2], "includesElement__electronegativity_sanderson": [0.748727, 1.124263], "includesElement__en_ghosh": [0.1392532, 0.1440276], "includesElement__en_pauling": [1.83, 2.2], "includesElement__evaporation_heat": [340.0, 372.4], "includesElement__fusion_heat": [13.8, 17.24], "includesElement__glawe_number": [71, 65], "includesElement__group_id": [8, 10], "includesElement__heat_of_formation": [415.5, 376.6], "includesElement__is_radioactive": [false], "includesElement__lattice_constant": [2.87, 3.89], "includesElement__mendeleev_number": [59, 68], "includesElement__molar_heat_capacity": [25.1, 25.98], "includesElement__period": [4, 5], "includesElement__pettifor_number": [61, 69], "includesElement__specific_heat_capacity": [0.449, 0.246], "includesElement__vdw_radius": [204.0, 210.0], "includesElement__vdw_radius_alvarez": [244.0, 215.0], "includesElement__vdw_radius_mm3": [223.0, 237.0], "includesElement__vdw_radius_uff": [291.2, 289.9], "includesElement__abundance_sea": [0.002], "includesElement__atomic_weight_uncertainty": [0.002, 0.01], "includesElement__c6_gb": [548.0, 628.0], "includesElement__covalent_radius_bragg": [140.0], "includesElement__electronegativity_allen": [10.64, 9.402], "includesElement__en_allen": [10.64, 9.402], "includesElement__metallic_radius": [117.0, 128.0], "includesElement__metallic_radius_c12": [126.0, 137.0], "includesElement__thermal_conductivity": [80.4, 71.8], "includesElement__vdw_radius_batsanov": [205.0], "includesElement__c6": [482.0], "includesElement__gas_basicity": [731.1, 673.4], "includesElement__proton_affinity": [754.0, 696.0], "includesElement__discovery_year": [1803], "formula": ["Fe1Pd3"], "spacegroup": ["221"], "thermalConductivity": [6.07267], "icsd": ["103582"], "band_gap": [0.0], "density": [10.79179], "density_atomic": [14.4294], "deprecated": [false], "efermi": [4.405166], "energy_above_hull": [0.0], "energy_per_atom": [-6.110668], "formation_energy_per_atom": [-0.1082513], "homogeneous_poisson": [0.317], "is_gap_direct": [false], "is_magnetic": [true], "is_metal": [true], "is_stable": [true], "nelements": [2], "nsites": [4], "num_magnetic_sites": [4], "num_unique_magnetic_sites": [2], "theoretical": [false], "total_magnetization": [4.445737], "total_magnetization_normalized_formula_units": [4.445737], "total_magnetization_normalized_vol": [0.07702565], "uncorrected_energy_per_atom": [-20.97386], "universal_anisotropy": [0.66], "volume": [57.71761], "equilibrium_reaction_energy_per_atom": [-0.1082513]}