{"includesElement": ["", "Sb", "U"], "includesElement___series_id": [5, 10], "includesElement__abundance_crust": [0.2, 2.7], "includesElement__atomic_number": [51, 92], "includesElement__atomic_radius": [145.0, 175.0], "includesElement__atomic_radius_rahm": [246.0, 283.0], "includesElement__atomic_volume": [18.4, 12.5], "includesElement__atomic_weight": [121.76, 238.0289], "includesElement__covalent_radius_cordero": [139.0, 196.0], "includesElement__covalent_radius_pyykko": [140.0, 170.0], "includesElement__covalent_radius_pyykko_double": [133.0, 134.0], "includesElement__covalent_radius_pyykko_triple": [127.0, 118.0], "includesElement__density": [6.68, 19.1], "includesElement__dipole_polarizability": [43.0, 129.0], "includesElement__dipole_polarizability_unc": [2.0, 17.0], "includesElement__electron_affinity": [1.046], "includesElement__electronegativity_allred-rochow": [0.0003214286, 0.0001038062], "includesElement__electronegativity_cottrell-sutton": [0.212132, 0.1328422], "includesElement__electronegativity_ghosh": [0.1918774, 0.13207], "includesElement__electronegativity_gordy": [0.045, 0.01764706], "includesElement__electronegativity_mulliken": [4.827195, 3.097025], "includesElement__electronegativity_nagle": [0.4880907, 0.3596283], "includesElement__electronegativity_pauling": [2.05, 1.7], "includesElement__electronegativity_sanderson": [0.7762722, 0.618118], "includesElement__en_ghosh": [0.1918774, 0.13207], "includesElement__en_pauling": [2.05, 1.7], "includesElement__evaporation_heat": [195.2, 417.0], "includesElement__fusion_heat": [20.08, 12.6], "includesElement__glawe_number": [91, 36], "includesElement__group_id": [15], "includesElement__heat_of_formation": [264.4, 533.0], "includesElement__is_radioactive": [false, true], "includesElement__lattice_constant": [4.51, 2.85], "includesElement__mendeleev_number": [96, 20], "includesElement__molar_heat_capacity": [25.23, 27.665], "includesElement__period": [5, 7], "includesElement__pettifor_number": [88, 45], "includesElement__specific_heat_capacity": [0.207, 0.116], "includesElement__vdw_radius": [206.0, 241.0], "includesElement__vdw_radius_alvarez": [247.0, 271.0], "includesElement__vdw_radius_mm3": [252.0], "includesElement__vdw_radius_uff": [442.0, 339.5], "includesElement__abundance_sea": [0.00024, 0.0032], "includesElement__atomic_weight_uncertainty": [0.001, 3e-05], "includesElement__c6_gb": [504.0], "includesElement__covalent_radius_bragg": [140.0], "includesElement__electronegativity_allen": [11.74], "includesElement__en_allen": [11.74], "includesElement__metallic_radius": [139.0], "includesElement__metallic_radius_c12": [166.0], "includesElement__thermal_conductivity": [24.43, 27.5], "includesElement__vdw_radius_batsanov": [220.0, 230.0], "includesElement__c6": [492.0], "includesElement__vdw_radius_dreiding": [435.0], "includesElement__vdw_radius_truhlar": [206.0], "includesElement__discovery_year": [1789], "includesElement__gas_basicity": [973.2], "includesElement__proton_affinity": [995.2], "formula": ["Sb1U1"], "spacegroup": ["225"], "thermalConductivity": [4.70368], "icsd": ["603013"], "band_gap": [0.0], "density": [10.03031], "density_atomic": [29.78192], "deprecated": [false], "efermi": [8.514655], "energy_above_hull": [0.07130109], "energy_per_atom": [-53.32919], "formation_energy_per_atom": [-0.5050173], "homogeneous_poisson": [1.117], "is_gap_direct": [false], "is_magnetic": [true], "is_metal": [true], "is_stable": [false], "nelements": [2], "nsites": [2], "num_magnetic_sites": [1], "num_unique_magnetic_sites": [1], "theoretical": [false], "total_magnetization": [2.702169], "total_magnetization_normalized_formula_units": [2.702169], "total_magnetization_normalized_vol": [0.04536593], "uncorrected_energy_per_atom": [-7.875702], "universal_anisotropy": [0.073], "volume": [59.56384]}