{"includesElement": ["", "Ni", "As", "K"], "includesElement___series_id": [8, 5, 3], "includesElement__abundance_crust": [84.0, 1.8, 20900.0], "includesElement__atomic_number": [28, 33, 19], "includesElement__atomic_radius": [135.0, 115.0, 220.0], "includesElement__atomic_radius_rahm": [229.0, 231.0, 234.0], "includesElement__atomic_volume": [6.6, 13.1, 45.3], "includesElement__atomic_weight": [58.6934, 74.92159, 39.0983], "includesElement__covalent_radius_cordero": [124.0, 119.0, 203.0], "includesElement__covalent_radius_pyykko": [110.0, 121.0, 196.0], "includesElement__covalent_radius_pyykko_double": [101.0, 114.0, 193.0], "includesElement__covalent_radius_pyykko_triple": [101.0, 106.0], "includesElement__density": [8.9, 5.75, 0.89], "includesElement__dipole_polarizability": [49.0, 30.0, 289.7], "includesElement__dipole_polarizability_unc": [3.0, 1.0, 0.3], "includesElement__discovery_year": [1751, 1807], "includesElement__electron_affinity": [1.156, 0.804, 0.50147], "includesElement__electronegativity_allred-rochow": [0.0003347107, 0.0004302985, 5.726781e-05], "includesElement__electronegativity_cottrell-sutton": [0.1918806, 0.22818, 0.1059457], "includesElement__electronegativity_ghosh": [0.1472068, 0.2068208, 0.0981896], "includesElement__electronegativity_gordy": [0.03681818, 0.05206612, 0.01122449], "includesElement__electronegativity_mulliken": [4.397939, 5.2965, 2.421067], "includesElement__electronegativity_nagle": [0.588755, 0.5503212, 0.1511299], "includesElement__electronegativity_pauling": [1.91, 2.18, 0.82], "includesElement__electronegativity_sanderson": [0.937704, 0.8253373, 0.1218383], "includesElement__en_ghosh": [0.1472068, 0.2068208, 0.0981896], "includesElement__en_pauling": [1.91, 2.18, 0.82], "includesElement__evaporation_heat": [378.6, 32.4, 2.33], "includesElement__fusion_heat": [17.61, 102.5], "includesElement__glawe_number": [69, 90, 10], "includesElement__group_id": [10, 15, 1], "includesElement__heat_of_formation": [430.1, 302.5, 89.0], "includesElement__is_radioactive": [false], "includesElement__lattice_constant": [3.52, 4.13, 5.23], "includesElement__mendeleev_number": [67, 95, 3], "includesElement__molar_heat_capacity": [26.07, 24.64, 29.6], "includesElement__period": [4], "includesElement__pettifor_number": [67, 89, 10], "includesElement__specific_heat_capacity": [0.444, 0.329, 0.757], "includesElement__vdw_radius": [197.0, 185.0, 275.0], "includesElement__vdw_radius_alvarez": [240.0, 188.0, 273.0], "includesElement__vdw_radius_mm3": [222.0, 236.0, 309.0], "includesElement__vdw_radius_uff": [283.4, 423.0, 381.2], "includesElement__abundance_sea": [0.00056, 0.0037, 399.0], "includesElement__atomic_weight_uncertainty": [0.0004, 6e-06, 0.0001], "includesElement__c6_gb": [393.0, 260.0, 3910.0], "includesElement__covalent_radius_bragg": [135.0, 126.0, 207.0], "includesElement__electronegativity_allen": [11.13, 13.08, 4.34], "includesElement__en_allen": [11.13, 13.08, 4.34], "includesElement__metallic_radius": [115.0, 121.0, 203.0], "includesElement__metallic_radius_c12": [124.0, 148.0, 235.0], "includesElement__thermal_conductivity": [90.9, 79.0], "includesElement__vdw_radius_batsanov": [200.0, 205.0, 280.0], "includesElement__c6": [373.0, 246.0, 3923.0], "includesElement__gas_basicity": [714.1], "includesElement__proton_affinity": [737.0], "includesElement__is_monoisotopic": [true], "includesElement__vdw_radius_dreiding": [415.0], "includesElement__vdw_radius_bondi": [185.0, 275.0], "formula": ["As4K4Ni2"], "spacegroup": ["63"], "thermalConductivity": [1.36354], "icsd": ["300120"], "band_gap": [0.0803], "density": [3.61624], "density_atomic": [26.33297], "deprecated": [false], "efermi": [2.792586], "energy_above_hull": [0.0], "energy_per_atom": [-3.883572], "formation_energy_per_atom": [-0.4069481], "is_gap_direct": [false], "is_magnetic": [false], "is_metal": [false], "is_stable": [true], "nelements": [3], "nsites": [10], "num_magnetic_sites": [0], "num_unique_magnetic_sites": [0], "theoretical": [false], "total_magnetization": [0.0], "total_magnetization_normalized_formula_units": [0.0], "total_magnetization_normalized_vol": [0.0], "uncorrected_energy_per_atom": [-11.21605], "volume": [263.3297], "cbm": [2.8305], "equilibrium_reaction_energy_per_atom": [-0.03767117], "vbm": [2.7502]}