{"includesElement": ["", "Pt", "Cs", "C"], "includesElement___series_id": [8, 3, 1], "includesElement__abundance_crust": [0.005, 3.0, 200.0], "includesElement__atomic_number": [78, 55, 6], "includesElement__atomic_radius": [135.0, 260.0, 70.0], "includesElement__atomic_radius_rahm": [230.0, 249.0, 190.0], "includesElement__atomic_volume": [9.1, 70.0, 5.3], "includesElement__atomic_weight": [195.084, 132.9055, 12.011], "includesElement__covalent_radius_cordero": [136.0, 244.0, 73.0], "includesElement__covalent_radius_pyykko": [123.0, 232.0, 75.0], "includesElement__covalent_radius_pyykko_double": [112.0, 209.0, 67.0], "includesElement__covalent_radius_pyykko_triple": [110.0, 60.0], "includesElement__density": [21.5, 1.873, 2.2], "includesElement__dipole_polarizability": [48.0, 400.9, 11.3], "includesElement__dipole_polarizability_unc": [4.0, 0.7, 0.2], "includesElement__discovery_year": [1735, 1860], "includesElement__electron_affinity": [2.128, 0.471626, 1.262119], "includesElement__electronegativity_allred-rochow": [0.0002346487, 4.087396e-05, 0.0005777778], "includesElement__electronegativity_cottrell-sutton": [0.1698876, 0.09737946, 0.2081666], "includesElement__electronegativity_ghosh": [0.25691, 0.1542125, 0.224776], "includesElement__electronegativity_gordy": [0.02886179, 0.009482759, 0.04333333], "includesElement__electronegativity_mulliken": [5.543415, 2.182766, 6.261208], "includesElement__electronegativity_nagle": [0.5928156, 0.1356192, 0.7073926], "includesElement__electronegativity_pauling": [2.2, 0.79, 2.55], "includesElement__electronegativity_sanderson": [1.45101, 0.1814531, 0.427525], "includesElement__en_ghosh": [0.25691, 0.1542125, 0.224776], "includesElement__en_pauling": [2.2, 0.79, 2.55], "includesElement__evaporation_heat": [470.0, 68.3], "includesElement__fusion_heat": [21.76, 2.09], "includesElement__glawe_number": [64, 8, 87], "includesElement__group_id": [10, 1, 14], "includesElement__heat_of_formation": [565.7, 76.5, 716.87], "includesElement__is_radioactive": [false], "includesElement__lattice_constant": [3.92, 6.05, 3.57], "includesElement__mendeleev_number": [69, 5, 87], "includesElement__molar_heat_capacity": [25.86, 32.21, 8.517], "includesElement__period": [6, 2], "includesElement__pettifor_number": [68, 8, 95], "includesElement__specific_heat_capacity": [0.133, 0.242, 0.709], "includesElement__vdw_radius": [213.0, 343.0, 170.0], "includesElement__vdw_radius_alvarez": [229.0, 348.0, 177.0], "includesElement__vdw_radius_mm3": [239.0, 344.0, 204.0], "includesElement__vdw_radius_uff": [275.4, 451.7, 385.1], "includesElement__atomic_weight_uncertainty": [0.009, 6e-08], "includesElement__c6_gb": [470.0, 6660.0, 47.9], "includesElement__electronegativity_allen": [10.16, 3.898, 15.05], "includesElement__en_allen": [10.16, 3.898, 15.05], "includesElement__metallic_radius": [130.0, 235.0], "includesElement__metallic_radius_c12": [139.0, 267.0, 86.0], "includesElement__thermal_conductivity": [71.6, 35.9, 1.59], "includesElement__vdw_radius_batsanov": [205.0, 300.0, 170.0], "includesElement__abundance_sea": [0.0003, 28.0], "includesElement__covalent_radius_bragg": [237.0, 77.0], "includesElement__is_monoisotopic": [true], "includesElement__vdw_radius_truhlar": [343.0], "includesElement__c6": [46.6], "includesElement__vdw_radius_dreiding": [389.83], "includesElement__vdw_radius_bondi": [170.0], "includesElement__vdw_radius_rt": [177.0], "formula": ["C2Cs2Pt1"], "spacegroup": ["164"], "thermalConductivity": [2.43896], "icsd": ["94397"], "band_gap": [1.2698], "density": [5.487903], "density_atomic": [29.34536], "deprecated": [false], "efermi": [2.200732], "energy_above_hull": [0.0], "energy_per_atom": [-5.322089], "formation_energy_per_atom": [-0.0569048], "homogeneous_poisson": [0.306], "is_gap_direct": [false], "is_magnetic": [false], "is_metal": [false], "is_stable": [true], "nelements": [3], "nsites": [5], "num_magnetic_sites": [0], "num_unique_magnetic_sites": [0], "theoretical": [false], "total_magnetization": [0.0], "total_magnetization_normalized_formula_units": [0.0], "total_magnetization_normalized_vol": [0.0], "uncorrected_energy_per_atom": [-24.49062], "universal_anisotropy": [14.37], "volume": [146.7268], "cbm": [3.431], "e_electronic": [6.331884], "e_ionic": [6.841555], "e_total": [13.17344], "equilibrium_reaction_energy_per_atom": [-0.03721832], "n": [2.516324], "vbm": [2.1612]}