{"includesElement": ["", "Hg", "Ga", "Te"], "includesElement___series_id": [8, 7, 5], "includesElement__abundance_crust": [0.085, 19.0, 0.001], "includesElement__atomic_number": [80, 31, 52], "includesElement__atomic_radius": [150.0, 130.0, 140.0], "includesElement__atomic_radius_rahm": [229.0, 233.0, 242.0], "includesElement__atomic_volume": [14.8, 11.8, 20.5], "includesElement__atomic_weight": [200.592, 69.723, 127.6], "includesElement__covalent_radius_cordero": [132.0, 122.0, 138.0], "includesElement__covalent_radius_pyykko": [133.0, 124.0, 136.0], "includesElement__covalent_radius_pyykko_double": [142.0, 117.0, 128.0], "includesElement__density": [13.5336, 5.91, 6.232], "includesElement__dipole_polarizability": [33.91, 50.0, 38.0], "includesElement__dipole_polarizability_unc": [0.34, 3.0, 4.0], "includesElement__electronegativity_allred-rochow": [0.0002459155, 0.0003251821, 0.0003757569], "includesElement__electronegativity_cottrell-sutton": [0.1808501, 0.2008048, 0.2260596], "includesElement__electronegativity_ghosh": [0.169, 0.1723773, 0.2056992], "includesElement__electronegativity_gordy": [0.03270677, 0.04032258, 0.05110294], "includesElement__electronegativity_mulliken": [5.218752, 3.214651, 5.490268], "includesElement__electronegativity_nagle": [0.7073231, 0.3914868, 0.5404919], "includesElement__electronegativity_pauling": [1.9, 1.81, 2.1], "includesElement__electronegativity_sanderson": [1.164789, 0.720541, 0.8622506], "includesElement__en_ghosh": [0.169, 0.1723773, 0.2056992], "includesElement__en_pauling": [1.9, 1.81, 2.1], "includesElement__evaporation_heat": [58.5, 270.3, 49.8], "includesElement__fusion_heat": [2.295, 5.59, 17.91], "includesElement__glawe_number": [76, 79, 94], "includesElement__group_id": [12, 13, 16], "includesElement__heat_of_formation": [61.38, 271.96, 196.6], "includesElement__is_radioactive": [false], "includesElement__lattice_constant": [2.99, 4.51, 4.45], "includesElement__mendeleev_number": [79, 83, 102], "includesElement__molar_heat_capacity": [27.983, 26.03, 25.73], "includesElement__period": [6, 4, 5], "includesElement__pettifor_number": [74, 81, 92], "includesElement__specific_heat_capacity": [0.14, 0.373, 0.202], "includesElement__vdw_radius": [223.0, 187.0, 206.0], "includesElement__vdw_radius_alvarez": [245.0, 232.0, 199.0], "includesElement__vdw_radius_mm3": [253.0, 246.0, 244.0], "includesElement__vdw_radius_uff": [270.5, 438.3, 447.0], "includesElement__abundance_sea": [3e-05], "includesElement__atomic_weight_uncertainty": [0.003, 0.001, 0.03], "includesElement__c6_gb": [268.0, 456.0, 471.0], "includesElement__electronegativity_allen": [10.44, 10.39, 12.76], "includesElement__en_allen": [10.44, 10.39, 12.76], "includesElement__metallic_radius": [139.0, 125.0, 137.0], "includesElement__metallic_radius_c12": [151.0, 140.0, 160.0], "includesElement__thermal_conductivity": [8.3, 28.1, 14.3], "includesElement__vdw_radius_batsanov": [205.0, 210.0], "includesElement__covalent_radius_pyykko_triple": [121.0], "includesElement__discovery_year": [1875, 1782], "includesElement__electron_affinity": [0.43, 1.970876], "includesElement__c6": [498.0, 445.0], "includesElement__vdw_radius_dreiding": [439.0, 423.0], "includesElement__vdw_radius_bondi": [187.0, 206.0], "includesElement__covalent_radius_bragg": [133.0], "formula": ["Ga2Hg1Te4"], "spacegroup": ["82"], "thermalConductivity": [1.70975], "icsd": ["53575"], "band_gap": [0.6611], "density": [6.158664], "density_atomic": [32.75715], "deprecated": [false], "efermi": [2.952211], "energy_above_hull": [0.0], "energy_per_atom": [-25.21501], "formation_energy_per_atom": [-0.368972], "homogeneous_poisson": [0.241], "is_gap_direct": [true], "is_magnetic": [false], "is_metal": [false], "is_stable": [true], "nelements": [3], "nsites": [7], "num_magnetic_sites": [0], "num_unique_magnetic_sites": [0], "theoretical": [false], "total_magnetization": [0.0], "total_magnetization_normalized_formula_units": [0.0], "total_magnetization_normalized_vol": [0.0], "uncorrected_energy_per_atom": [-25.21501], "universal_anisotropy": [0.77], "volume": [229.3001], "cbm": [3.5789], "e_electronic": [12.07058], "e_ionic": [4.491183], "e_total": [16.56176], "equilibrium_reaction_energy_per_atom": [-0.02733557], "n": [3.474274], "vbm": [2.9178], "e_ij_max": [0.1086165]}