{"includesElement": ["", "Pa", "C"], "includesElement___series_id": [10, 1], "includesElement__abundance_crust": [1.4e-06, 200.0], "includesElement__atomic_number": [91, 6], "includesElement__atomic_radius": [180.0, 70.0], "includesElement__atomic_radius_rahm": [285.0, 190.0], "includesElement__atomic_volume": [15.0, 5.3], "includesElement__atomic_weight": [231.0359, 12.011], "includesElement__covalent_radius_cordero": [200.0, 73.0], "includesElement__covalent_radius_pyykko": [169.0, 75.0], "includesElement__covalent_radius_pyykko_double": [138.0, 67.0], "includesElement__covalent_radius_pyykko_triple": [129.0, 60.0], "includesElement__density": [15.4, 2.2], "includesElement__dipole_polarizability": [154.0, 11.3], "includesElement__dipole_polarizability_unc": [20.0, 0.2], "includesElement__discovery_year": [1917], "includesElement__electronegativity_allred-rochow": [0.0001050383, 0.0005777778], "includesElement__electronegativity_cottrell-sutton": [0.1332347, 0.2081666], "includesElement__electronegativity_ghosh": [0.12149, 0.224776], "includesElement__electronegativity_gordy": [0.01775148, 0.04333333], "includesElement__electronegativity_mulliken": [2.945, 6.261208], "includesElement__electronegativity_nagle": [0.3190189, 0.7073926], "includesElement__electronegativity_pauling": [1.5, 2.55], "includesElement__electronegativity_sanderson": [0.6230657, 0.427525], "includesElement__en_ghosh": [0.12149, 0.224776], "includesElement__en_pauling": [1.5, 2.55], "includesElement__evaporation_heat": [481.2], "includesElement__fusion_heat": [16.7], "includesElement__glawe_number": [35, 87], "includesElement__heat_of_formation": [563.0, 716.87], "includesElement__is_radioactive": [true, false], "includesElement__lattice_constant": [3.92, 3.57], "includesElement__mendeleev_number": [18, 87], "includesElement__period": [7, 2], "includesElement__pettifor_number": [46, 95], "includesElement__vdw_radius": [243.0, 170.0], "includesElement__vdw_radius_alvarez": [288.0, 177.0], "includesElement__vdw_radius_mm3": [264.0, 204.0], "includesElement__vdw_radius_uff": [342.4, 385.1], "includesElement__abundance_sea": [5e-11, 28.0], "includesElement__atomic_weight_uncertainty": [2e-05], "includesElement__is_monoisotopic": [true], "includesElement__electron_affinity": [1.262119], "includesElement__group_id": [14], "includesElement__molar_heat_capacity": [8.517], "includesElement__specific_heat_capacity": [0.709], "includesElement__c6_gb": [47.9], "includesElement__covalent_radius_bragg": [77.0], "includesElement__electronegativity_allen": [15.05], "includesElement__en_allen": [15.05], "includesElement__metallic_radius_c12": [86.0], "includesElement__thermal_conductivity": [1.59], "includesElement__vdw_radius_batsanov": [170.0], "includesElement__c6": [46.6], "includesElement__vdw_radius_dreiding": [389.83], "includesElement__vdw_radius_bondi": [170.0], "includesElement__vdw_radius_rt": [177.0], "formula": ["C1Pa1"], "spacegroup": ["225"], "thermalConductivity": [30.8236], "icsd": ["108177"], "band_gap": [0.0], "density": [12.25985], "density_atomic": [16.45976], "deprecated": [false], "efermi": [10.95388], "energy_above_hull": [0.0], "energy_per_atom": [-9.813561], "formation_energy_per_atom": [-0.4270796], "homogeneous_poisson": [0.299], "is_gap_direct": [false], "is_magnetic": [false], "is_metal": [true], "is_stable": [true], "nelements": [2], "nsites": [2], "num_magnetic_sites": [0], "num_unique_magnetic_sites": [0], "theoretical": [false], "total_magnetization": [7.3e-06], "total_magnetization_normalized_formula_units": [7.3e-06], "total_magnetization_normalized_vol": [2.217529e-07], "uncorrected_energy_per_atom": [-43.99326], "universal_anisotropy": [0.042], "volume": [32.91953], "equilibrium_reaction_energy_per_atom": [-0.4270796]}