{"includesElement": ["", "Ni", "Sb", "Dy"], "includesElement___series_id": [8, 5, 9], "includesElement__abundance_crust": [84.0, 0.2, 5.2], "includesElement__atomic_number": [28, 51, 66], "includesElement__atomic_radius": [135.0, 145.0, 175.0], "includesElement__atomic_radius_rahm": [229.0, 246.0, 275.0], "includesElement__atomic_volume": [6.6, 18.4, 19.0], "includesElement__atomic_weight": [58.6934, 121.76, 162.5], "includesElement__covalent_radius_cordero": [124.0, 139.0, 192.0], "includesElement__covalent_radius_pyykko": [110.0, 140.0, 167.0], "includesElement__covalent_radius_pyykko_double": [101.0, 133.0], "includesElement__covalent_radius_pyykko_triple": [101.0, 127.0], "includesElement__density": [8.9, 6.68, 8.55], "includesElement__dipole_polarizability": [49.0, 43.0, 163.0], "includesElement__dipole_polarizability_unc": [3.0, 2.0, 15.0], "includesElement__discovery_year": [1751, 1886], "includesElement__electron_affinity": [1.156, 1.046, 0.352], "includesElement__electronegativity_allred-rochow": [0.0003347107, 0.0003214286, 0.0001021908], "includesElement__electronegativity_cottrell-sutton": [0.1918806, 0.212132, 0.1306364], "includesElement__electronegativity_ghosh": [0.1472068, 0.1918774, 0.20333], "includesElement__electronegativity_gordy": [0.03681818, 0.045, 0.01706587], "includesElement__electronegativity_mulliken": [4.397939, 4.827195, 3.145525], "includesElement__electronegativity_nagle": [0.588755, 0.4880907, 0.4191131], "includesElement__electronegativity_pauling": [1.91, 2.05, 1.22], "includesElement__electronegativity_sanderson": [0.937704, 0.7762722, 0.5297338], "includesElement__en_ghosh": [0.1472068, 0.1918774, 0.20333], "includesElement__en_pauling": [1.91, 2.05, 1.22], "includesElement__evaporation_heat": [378.6, 195.2, 291.0], "includesElement__fusion_heat": [17.61, 20.08], "includesElement__glawe_number": [69, 91, 24], "includesElement__group_id": [10, 15], "includesElement__heat_of_formation": [430.1, 264.4, 290.4], "includesElement__is_radioactive": [false], "includesElement__lattice_constant": [3.52, 4.51, 3.59], "includesElement__mendeleev_number": [67, 96, 31], "includesElement__molar_heat_capacity": [26.07, 25.23, 28.16], "includesElement__period": [4, 5, 6], "includesElement__pettifor_number": [67, 88, 25], "includesElement__specific_heat_capacity": [0.444, 0.207, 0.173], "includesElement__vdw_radius": [197.0, 206.0, 231.0], "includesElement__vdw_radius_alvarez": [240.0, 247.0, 287.0], "includesElement__vdw_radius_mm3": [222.0, 252.0, 290.0], "includesElement__vdw_radius_uff": [283.4, 442.0, 342.8], "includesElement__abundance_sea": [0.00056, 0.00024, 9.1e-07], "includesElement__atomic_weight_uncertainty": [0.0004, 0.001], "includesElement__c6_gb": [393.0, 504.0, 2430.0], "includesElement__covalent_radius_bragg": [135.0, 140.0], "includesElement__electronegativity_allen": [11.13, 11.74], "includesElement__en_allen": [11.13, 11.74], "includesElement__metallic_radius": [115.0, 139.0], "includesElement__metallic_radius_c12": [124.0, 166.0], "includesElement__thermal_conductivity": [90.9, 24.43, 10.7], "includesElement__vdw_radius_batsanov": [200.0, 220.0], "includesElement__c6": [373.0, 492.0], "includesElement__gas_basicity": [714.1], "includesElement__proton_affinity": [737.0], "includesElement__vdw_radius_dreiding": [435.0], "includesElement__vdw_radius_truhlar": [206.0], "formula": ["Dy1Ni1Sb1", "DyNiSb"], "mp_id": ["4510"], "spacegroup": ["216"], "thermalConductivity": [8.50417, 9.46], "icsd": ["103339"], "band_gap": [0.3123], "density": [9.061551], "density_atomic": [20.94886], "deprecated": [false], "efermi": [6.563104], "energy_above_hull": [0.0], "energy_per_atom": [-5.806589], "formation_energy_per_atom": [-0.9640843], "homogeneous_poisson": [0.242], "is_gap_direct": [false], "is_magnetic": [false], "is_metal": [false], "is_stable": [true], "nelements": [3], "nsites": [3], "num_magnetic_sites": [0], "num_unique_magnetic_sites": [0], "theoretical": [false], "total_magnetization": [0.0], "total_magnetization_normalized_formula_units": [0.0], "total_magnetization_normalized_vol": [0.0], "uncorrected_energy_per_atom": [-24.22642], "universal_anisotropy": [0.201], "volume": [62.84658], "cbm": [6.7266], "e_electronic": [18.72959], "e_ionic": [2.877181], "e_total": [21.60677], "equilibrium_reaction_energy_per_atom": [-0.1393904], "n": [4.327769], "vbm": [6.4143], "e_ij_max": [0.2683433]}