{"includesElement": ["", "Ni", "W", "C"], "includesElement___series_id": [8, 1], "includesElement__abundance_crust": [84.0, 1.25, 200.0], "includesElement__atomic_number": [28, 74, 6], "includesElement__atomic_radius": [135.0, 70.0], "includesElement__atomic_radius_rahm": [229.0, 253.0, 190.0], "includesElement__atomic_volume": [6.6, 9.53, 5.3], "includesElement__atomic_weight": [58.6934, 183.84, 12.011], "includesElement__covalent_radius_cordero": [124.0, 162.0, 73.0], "includesElement__covalent_radius_pyykko": [110.0, 137.0, 75.0], "includesElement__covalent_radius_pyykko_double": [101.0, 120.0, 67.0], "includesElement__covalent_radius_pyykko_triple": [101.0, 115.0, 60.0], "includesElement__density": [8.9, 19.3, 2.2], "includesElement__dipole_polarizability": [49.0, 68.0, 11.3], "includesElement__dipole_polarizability_unc": [3.0, 15.0, 0.2], "includesElement__discovery_year": [1751, 1783], "includesElement__electron_affinity": [1.156, 0.81626, 1.262119], "includesElement__electronegativity_allred-rochow": [0.0003347107, 0.0001838137, 0.0005777778], "includesElement__electronegativity_cottrell-sutton": [0.1918806, 0.1586899, 0.2081666], "includesElement__electronegativity_ghosh": [0.1472068, 0.2390504, 0.224776], "includesElement__electronegativity_gordy": [0.03681818, 0.02518248, 0.04333333], "includesElement__electronegativity_mulliken": [4.397939, 4.340145, 6.261208], "includesElement__electronegativity_nagle": [0.588755, 0.4451921, 0.7073926], "includesElement__electronegativity_pauling": [1.91, 1.7, 2.55], "includesElement__electronegativity_sanderson": [0.937704, 1.019283, 0.427525], "includesElement__en_ghosh": [0.1472068, 0.2390504, 0.224776], "includesElement__en_pauling": [1.91, 1.7, 2.55], "includesElement__evaporation_heat": [378.6, 824.0], "includesElement__fusion_heat": [17.61, 35.0], "includesElement__glawe_number": [69, 57, 87], "includesElement__group_id": [10, 6, 14], "includesElement__heat_of_formation": [430.1, 851.0, 716.87], "includesElement__is_radioactive": [false], "includesElement__lattice_constant": [3.52, 3.16, 3.57], "includesElement__mendeleev_number": [67, 53, 87], "includesElement__molar_heat_capacity": [26.07, 24.27, 8.517], "includesElement__period": [4, 6, 2], "includesElement__pettifor_number": [67, 56, 95], "includesElement__specific_heat_capacity": [0.444, 0.132, 0.709], "includesElement__vdw_radius": [197.0, 218.0, 170.0], "includesElement__vdw_radius_alvarez": [240.0, 257.0, 177.0], "includesElement__vdw_radius_mm3": [222.0, 239.0, 204.0], "includesElement__vdw_radius_uff": [283.4, 309.6, 385.1], "includesElement__abundance_sea": [0.00056, 0.0001, 28.0], "includesElement__atomic_weight_uncertainty": [0.0004, 0.01], "includesElement__c6_gb": [393.0, 757.0, 47.9], "includesElement__covalent_radius_bragg": [135.0, 77.0], "includesElement__electronegativity_allen": [11.13, 8.67, 15.05], "includesElement__en_allen": [11.13, 8.67, 15.05], "includesElement__metallic_radius": [115.0, 130.0], "includesElement__metallic_radius_c12": [124.0, 139.0, 86.0], "includesElement__thermal_conductivity": [90.9, 173.0, 1.59], "includesElement__vdw_radius_batsanov": [200.0, 210.0, 170.0], "includesElement__c6": [373.0, 46.6], "includesElement__gas_basicity": [714.1], "includesElement__proton_affinity": [737.0], "includesElement__vdw_radius_dreiding": [389.83], "includesElement__vdw_radius_bondi": [170.0], "includesElement__vdw_radius_rt": [177.0], "formula": ["C4Ni8W16"], "spacegroup": ["227"], "thermalConductivity": [5.41372], "icsd": ["618587"], "band_gap": [0.0], "density": [16.09833], "density_atomic": [12.74279], "deprecated": [false], "efermi": [7.844395], "energy_above_hull": [0.0], "energy_per_atom": [-10.46053], "formation_energy_per_atom": [-0.0860309], "is_gap_direct": [false], "is_magnetic": [false], "is_metal": [true], "is_stable": [true], "nelements": [3], "nsites": [28], "num_magnetic_sites": [0], "num_unique_magnetic_sites": [0], "theoretical": [false], "total_magnetization": [3e-07], "total_magnetization_normalized_formula_units": [7.5e-08], "total_magnetization_normalized_vol": [8.408113e-10], "uncorrected_energy_per_atom": [-34.25371], "volume": [356.7982], "equilibrium_reaction_energy_per_atom": [-0.00842821]}