{"includesElement": ["", "Ni", "Sb", "Y"], "includesElement___series_id": [8, 5], "includesElement__abundance_crust": [84.0, 0.2, 33.0], "includesElement__atomic_number": [28, 51, 39], "includesElement__atomic_radius": [135.0, 145.0, 180.0], "includesElement__atomic_radius_rahm": [229.0, 246.0, 274.0], "includesElement__atomic_volume": [6.6, 18.4, 19.8], "includesElement__atomic_weight": [58.6934, 121.76, 88.90584], "includesElement__covalent_radius_cordero": [124.0, 139.0, 190.0], "includesElement__covalent_radius_pyykko": [110.0, 140.0, 163.0], "includesElement__covalent_radius_pyykko_double": [101.0, 133.0, 130.0], "includesElement__covalent_radius_pyykko_triple": [101.0, 127.0, 124.0], "includesElement__density": [8.9, 6.68, 4.47], "includesElement__dipole_polarizability": [49.0, 43.0, 162.0], "includesElement__dipole_polarizability_unc": [3.0, 2.0, 12.0], "includesElement__discovery_year": [1751, 1789], "includesElement__electron_affinity": [1.156, 1.046, 0.307], "includesElement__electronegativity_allred-rochow": [0.0003347107, 0.0003214286, 0.0001129135], "includesElement__electronegativity_cottrell-sutton": [0.1918806, 0.212132, 0.1356647], "includesElement__electronegativity_ghosh": [0.1472068, 0.1918774, 0.1216986], "includesElement__electronegativity_gordy": [0.03681818, 0.045, 0.01840491], "includesElement__electronegativity_mulliken": [4.397939, 4.827195, 3.26213], "includesElement__electronegativity_nagle": [0.588755, 0.4880907, 0.2645668], "includesElement__electronegativity_pauling": [1.91, 2.05, 1.22], "includesElement__electronegativity_sanderson": [0.937704, 0.7762722, 0.3923941], "includesElement__en_ghosh": [0.1472068, 0.1918774, 0.1216986], "includesElement__en_pauling": [1.91, 2.05, 1.22], "includesElement__evaporation_heat": [378.6, 195.2, 367.0], "includesElement__fusion_heat": [17.61, 20.08, 11.5], "includesElement__glawe_number": [69, 91, 21], "includesElement__group_id": [10, 15, 3], "includesElement__heat_of_formation": [430.1, 264.4, 424.7], "includesElement__is_radioactive": [false], "includesElement__lattice_constant": [3.52, 4.51, 3.65], "includesElement__mendeleev_number": [67, 96, 12], "includesElement__molar_heat_capacity": [26.07, 25.23, 26.53], "includesElement__period": [4, 5], "includesElement__pettifor_number": [67, 88, 19], "includesElement__specific_heat_capacity": [0.444, 0.207, 0.298], "includesElement__vdw_radius": [197.0, 206.0, 232.0], "includesElement__vdw_radius_alvarez": [240.0, 247.0, 275.0], "includesElement__vdw_radius_mm3": [222.0, 252.0, 271.0], "includesElement__vdw_radius_uff": [283.4, 442.0, 334.5], "includesElement__abundance_sea": [0.00056, 0.00024, 1.3e-05], "includesElement__atomic_weight_uncertainty": [0.0004, 0.001, 2e-05], "includesElement__c6_gb": [393.0, 504.0, 2600.0], "includesElement__covalent_radius_bragg": [135.0, 140.0], "includesElement__electronegativity_allen": [11.13, 11.74, 6.631], "includesElement__en_allen": [11.13, 11.74, 6.631], "includesElement__metallic_radius": [115.0, 139.0, 162.0], "includesElement__metallic_radius_c12": [124.0, 166.0, 180.0], "includesElement__thermal_conductivity": [90.9, 24.43], "includesElement__vdw_radius_batsanov": [200.0, 220.0, 240.0], "includesElement__c6": [373.0, 492.0], "includesElement__gas_basicity": [714.1, 945.9], "includesElement__proton_affinity": [737.0, 967.0], "includesElement__vdw_radius_dreiding": [435.0], "includesElement__vdw_radius_truhlar": [206.0], "includesElement__is_monoisotopic": [true], "formula": ["Ni1Sb1Y1", "YNiSb"], "mp_id": ["11520"], "spacegroup": ["216"], "thermalConductivity": [9.80227, 9.03], "icsd": ["105331"], "band_gap": [0.2945], "density": [7.046821], "density_atomic": [21.1576], "deprecated": [false], "efermi": [6.586446], "energy_above_hull": [0.0], "energy_per_atom": [-6.422142], "formation_energy_per_atom": [-0.9493987], "homogeneous_poisson": [0.242], "is_gap_direct": [false], "is_magnetic": [false], "is_metal": [false], "is_stable": [true], "nelements": [3], "nsites": [3], "num_magnetic_sites": [0], "num_unique_magnetic_sites": [0], "theoretical": [false], "total_magnetization": [0.0], "total_magnetization_normalized_formula_units": [0.0], "total_magnetization_normalized_vol": [0.0], "uncorrected_energy_per_atom": [-20.31667], "universal_anisotropy": [0.166], "volume": [63.47281], "cbm": [6.7567], "e_electronic": [18.69219], "e_ionic": [2.955558], "e_total": [21.64775], "equilibrium_reaction_energy_per_atom": [-0.1184129], "n": [4.323446], "vbm": [6.4622], "e_ij_max": [0.419583]}