{"includesElement": ["", "Ru", "U"], "includesElement___series_id": [8, 10], "includesElement__abundance_crust": [0.001, 2.7], "includesElement__atomic_number": [44, 92], "includesElement__atomic_radius": [130.0, 175.0], "includesElement__atomic_radius_rahm": [237.0, 283.0], "includesElement__atomic_volume": [8.3, 12.5], "includesElement__atomic_weight": [101.07, 238.0289], "includesElement__covalent_radius_cordero": [146.0, 196.0], "includesElement__covalent_radius_pyykko": [125.0, 170.0], "includesElement__covalent_radius_pyykko_double": [114.0, 134.0], "includesElement__covalent_radius_pyykko_triple": [103.0, 118.0], "includesElement__density": [12.1, 19.1], "includesElement__dipole_polarizability": [72.0, 129.0], "includesElement__dipole_polarizability_unc": [10.0, 17.0], "includesElement__discovery_year": [1844, 1789], "includesElement__electron_affinity": [1.05], "includesElement__electronegativity_allred-rochow": [0.000208, 0.0001038062], "includesElement__electronegativity_cottrell-sutton": [0.1612452, 0.1328422], "includesElement__electronegativity_ghosh": [0.1376494, 0.13207], "includesElement__electronegativity_gordy": [0.026, 0.01764706], "includesElement__electronegativity_mulliken": [4.20525, 3.097025], "includesElement__electronegativity_nagle": [0.4807499, 0.3596283], "includesElement__electronegativity_pauling": [2.2, 1.7], "includesElement__electronegativity_sanderson": [0.9579373, 0.618118], "includesElement__en_ghosh": [0.1376494, 0.13207], "includesElement__en_pauling": [2.2, 1.7], "includesElement__fusion_heat": [25.5, 12.6], "includesElement__glawe_number": [61, 36], "includesElement__group_id": [8], "includesElement__heat_of_formation": [650.6, 533.0], "includesElement__is_radioactive": [false, true], "includesElement__lattice_constant": [2.7, 2.85], "includesElement__mendeleev_number": [60, 20], "includesElement__molar_heat_capacity": [24.06, 27.665], "includesElement__period": [5, 7], "includesElement__pettifor_number": [63, 45], "includesElement__specific_heat_capacity": [0.238, 0.116], "includesElement__vdw_radius": [213.0, 241.0], "includesElement__vdw_radius_alvarez": [246.0, 271.0], "includesElement__vdw_radius_mm3": [234.0, 252.0], "includesElement__vdw_radius_uff": [296.3, 339.5], "includesElement__abundance_sea": [7e-07, 0.0032], "includesElement__atomic_weight_uncertainty": [0.02, 3e-05], "includesElement__c6_gb": [809.0], "includesElement__electronegativity_allen": [9.1], "includesElement__en_allen": [9.1], "includesElement__metallic_radius": [125.0], "includesElement__metallic_radius_c12": [134.0], "includesElement__thermal_conductivity": [117.0, 27.5], "includesElement__vdw_radius_batsanov": [205.0, 230.0], "includesElement__gas_basicity": [751.4, 973.2], "includesElement__proton_affinity": [774.0, 995.2], "includesElement__evaporation_heat": [417.0], "formula": ["Ru3U1"], "spacegroup": ["221"], "thermalConductivity": [13.0296], "icsd": ["106008"], "band_gap": [0.0], "density": [14.35108], "density_atomic": [15.65646], "deprecated": [false], "efermi": [10.12596], "energy_above_hull": [0.0], "energy_per_atom": [-39.4078], "formation_energy_per_atom": [-0.3538886], "homogeneous_poisson": [0.3], "is_gap_direct": [false], "is_magnetic": [false], "is_metal": [true], "is_stable": [true], "nelements": [2], "nsites": [4], "num_magnetic_sites": [0], "num_unique_magnetic_sites": [0], "theoretical": [false], "total_magnetization": [0.0002044], "total_magnetization_normalized_formula_units": [0.0002044], "total_magnetization_normalized_vol": [3.263829e-06], "uncorrected_energy_per_atom": [-39.4078], "universal_anisotropy": [0.323], "volume": [62.62582], "equilibrium_reaction_energy_per_atom": [-0.3538886]}