{"includesElement": ["", "Ca", "Bi", "N"], "includesElement___series_id": [4, 7, 1], "includesElement__abundance_crust": [41500.0, 0.0085, 19.0], "includesElement__atomic_number": [20, 83, 7], "includesElement__atomic_radius": [180.0, 160.0, 65.0], "includesElement__atomic_radius_rahm": [270.0, 250.0, 179.0], "includesElement__atomic_volume": [29.9, 21.3, 17.3], "includesElement__atomic_weight": [40.078, 208.9804, 14.007], "includesElement__covalent_radius_cordero": [176.0, 148.0, 71.0], "includesElement__covalent_radius_pyykko": [171.0, 151.0, 71.0], "includesElement__covalent_radius_pyykko_double": [147.0, 141.0, 60.0], "includesElement__covalent_radius_pyykko_triple": [133.0, 135.0, 54.0], "includesElement__density": [1.54, 9.79, 0.001145], "includesElement__dipole_polarizability": [160.8, 48.0, 7.4], "includesElement__dipole_polarizability_unc": [4.0, 0.2], "includesElement__discovery_year": [1808, 1772], "includesElement__electron_affinity": [0.02455, 0.942362, -1.4], "includesElement__electronegativity_allred-rochow": [9.746589e-05, 0.0002763037, 0.000773656], "includesElement__electronegativity_cottrell-sutton": [0.1290994, 0.2042593, 0.2343706], "includesElement__electronegativity_ghosh": [0.1154119, 0.182377, 0.26493], "includesElement__electronegativity_gordy": [0.01666667, 0.04172185, 0.05492958], "includesElement__electronegativity_mulliken": [3.068853, 4.113939, 6.567065], "includesElement__electronegativity_nagle": [0.2316939, 0.470518, 0.8774979], "includesElement__electronegativity_pauling": [1.0, 1.9, 3.04], "includesElement__electronegativity_sanderson": [0.1901577, 0.8136501, 0.577482], "includesElement__en_ghosh": [0.1154119, 0.182377, 0.26493], "includesElement__en_pauling": [1.0, 1.9, 3.04], "includesElement__evaporation_heat": [153.6, 172.0], "includesElement__fusion_heat": [9.2, 11.0], "includesElement__glawe_number": [16, 92, 88], "includesElement__group_id": [2, 15], "includesElement__heat_of_formation": [177.8, 209.6, 472.44], "includesElement__is_radioactive": [false], "includesElement__lattice_constant": [5.58, 4.75, 4.039], "includesElement__mendeleev_number": [7, 97, 93], "includesElement__molar_heat_capacity": [25.929, 25.52, 29.124], "includesElement__period": [4, 6, 2], "includesElement__pettifor_number": [16, 87, 100], "includesElement__specific_heat_capacity": [0.647, 0.122, 1.04], "includesElement__vdw_radius": [231.0, 207.0, 155.0], "includesElement__vdw_radius_alvarez": [262.0, 254.0, 166.0], "includesElement__vdw_radius_mm3": [281.0, 266.0, 193.0], "includesElement__vdw_radius_uff": [339.9, 437.0, 366.0], "includesElement__abundance_sea": [412.0, 2e-05, 0.5], "includesElement__atomic_weight_uncertainty": [0.004, 1e-05], "includesElement__c6_gb": [2230.0, 513.0, 25.7], "includesElement__covalent_radius_bragg": [170.0, 148.0, 65.0], "includesElement__electronegativity_allen": [6.113, 11.9, 18.13], "includesElement__en_allen": [6.113, 11.9, 18.13], "includesElement__metallic_radius": [174.0, 151.0], "includesElement__metallic_radius_c12": [197.0, 178.0, 53.0], "includesElement__vdw_radius_batsanov": [240.0, 230.0, 160.0], "includesElement__c6": [2163.0, 24.2], "includesElement__vdw_radius_truhlar": [231.0, 207.0], "includesElement__thermal_conductivity": [7.9, 0.026], "includesElement__is_monoisotopic": [true], "includesElement__vdw_radius_dreiding": [366.21], "includesElement__gas_basicity": [318.7], "includesElement__proton_affinity": [342.2], "includesElement__vdw_radius_bondi": [155.0], "includesElement__vdw_radius_rt": [164.0], "formula": ["Bi1Ca3N1"], "spacegroup": ["221"], "thermalConductivity": [7.62895], "icsd": ["106320"], "band_gap": [0.3687], "density": [4.843294], "density_atomic": [23.53489], "deprecated": [false], "efermi": [4.422395], "energy_above_hull": [0.0], "energy_per_atom": [-4.734722], "formation_energy_per_atom": [-1.095609], "is_gap_direct": [true], "is_magnetic": [false], "is_metal": [false], "is_stable": [true], "nelements": [3], "nsites": [5], "num_magnetic_sites": [0], "num_unique_magnetic_sites": [0], "theoretical": [false], "total_magnetization": [0.0], "total_magnetization_normalized_formula_units": [0.0], "total_magnetization_normalized_vol": [0.0], "uncorrected_energy_per_atom": [-18.95343], "volume": [117.6745], "cbm": [4.6707], "e_electronic": [15.89794], "e_ionic": [18.37749], "e_total": [34.27543], "equilibrium_reaction_energy_per_atom": [-0.2040923], "n": [3.987222], "vbm": [4.302]}