{"includesElement": ["", "Sb", "Li", "Sr"], "includesElement___series_id": [5, 3, 4], "includesElement__abundance_crust": [0.2, 20.0, 370.0], "includesElement__atomic_number": [51, 3, 38], "includesElement__atomic_radius": [145.0, 200.0], "includesElement__atomic_radius_rahm": [246.0, 220.0, 279.0], "includesElement__atomic_volume": [18.4, 13.1, 33.7], "includesElement__atomic_weight": [121.76, 6.94, 87.62], "includesElement__covalent_radius_cordero": [139.0, 128.0, 195.0], "includesElement__covalent_radius_pyykko": [140.0, 133.0, 185.0], "includesElement__covalent_radius_pyykko_double": [133.0, 124.0, 157.0], "includesElement__covalent_radius_pyykko_triple": [127.0, 139.0], "includesElement__density": [6.68, 0.534, 2.64], "includesElement__dipole_polarizability": [43.0, 164.1125, 197.2], "includesElement__dipole_polarizability_unc": [2.0, 0.0005, 0.2], "includesElement__electron_affinity": [1.046, 0.618049, 0.048], "includesElement__electronegativity_allred-rochow": [0.0003214286, 7.3492e-05, 8.327246e-05], "includesElement__electronegativity_cottrell-sutton": [0.212132, 0.09886575, 0.1241185], "includesElement__electronegativity_ghosh": [0.1918774, 0.105093, 0.1185082], "includesElement__electronegativity_gordy": [0.045, 0.009774436, 0.01540541], "includesElement__electronegativity_mulliken": [4.827195, 3.004882, 2.871434], "includesElement__electronegativity_nagle": [0.4880907, 0.1826499, 0.2164584], "includesElement__electronegativity_pauling": [2.05, 0.98, 0.95], "includesElement__electronegativity_sanderson": [0.7762722, 0.04886793, 0.2631786], "includesElement__en_ghosh": [0.1918774, 0.105093, 0.1185082], "includesElement__en_pauling": [2.05, 0.98, 0.95], "includesElement__evaporation_heat": [195.2, 148.0, 144.0], "includesElement__fusion_heat": [20.08, 2.89, 9.2], "includesElement__glawe_number": [91, 12, 15], "includesElement__group_id": [15, 1, 2], "includesElement__heat_of_formation": [264.4, 159.3, 164.0], "includesElement__is_radioactive": [false], "includesElement__lattice_constant": [4.51, 3.49, 6.08], "includesElement__mendeleev_number": [96, 1, 8], "includesElement__molar_heat_capacity": [25.23, 24.86, 26.79], "includesElement__period": [5, 2], "includesElement__pettifor_number": [88, 12, 15], "includesElement__specific_heat_capacity": [0.207, 3.582, 0.306], "includesElement__vdw_radius": [206.0, 182.0, 249.0], "includesElement__vdw_radius_alvarez": [247.0, 212.0, 284.0], "includesElement__vdw_radius_mm3": [252.0, 255.0, 300.0], "includesElement__vdw_radius_uff": [442.0, 245.1, 364.1], "includesElement__abundance_sea": [0.00024, 0.18, 7.9], "includesElement__atomic_weight_uncertainty": [0.001, 0.01], "includesElement__c6_gb": [504.0, 1410.0, 3230.0], "includesElement__covalent_radius_bragg": [140.0, 150.0, 195.0], "includesElement__electronegativity_allen": [11.74, 5.392, 5.695], "includesElement__en_allen": [11.74, 5.392, 5.695], "includesElement__metallic_radius": [139.0, 123.0, 191.0], "includesElement__metallic_radius_c12": [166.0, 155.0, 215.0], "includesElement__thermal_conductivity": [24.43, 84.8], "includesElement__vdw_radius_batsanov": [220.0, 255.0], "includesElement__c6": [492.0, 1392.0, 3175.0], "includesElement__vdw_radius_dreiding": [435.0], "includesElement__vdw_radius_truhlar": [206.0, 249.0], "includesElement__discovery_year": [1817, 1790], "includesElement__vdw_radius_bondi": [181.0], "formula": ["Li4Sb4Sr4"], "spacegroup": ["62"], "thermalConductivity": [2.07708], "icsd": ["172216"], "band_gap": [0.6858], "density": [4.341096], "density_atomic": [27.58209], "deprecated": [false], "efermi": [3.687705], "energy_above_hull": [0.0], "energy_per_atom": [-3.595568], "formation_energy_per_atom": [-1.018784], "is_gap_direct": [true], "is_magnetic": [false], "is_metal": [false], "is_stable": [true], "nelements": [3], "nsites": [12], "num_magnetic_sites": [0], "num_unique_magnetic_sites": [0], "theoretical": [false], "total_magnetization": [0.0], "total_magnetization_normalized_formula_units": [0.0], "total_magnetization_normalized_vol": [0.0], "uncorrected_energy_per_atom": [-15.53655], "volume": [330.985], "cbm": [4.2486], "e_electronic": [10.1259], "e_ionic": [9.991929], "e_total": [20.11782], "equilibrium_reaction_energy_per_atom": [-0.1038761], "n": [3.182121], "vbm": [3.5628]}