{"includesElement": ["", "F", "S", "Y"], "includesElement___series_id": [6, 1, 8], "includesElement__abundance_crust": [585.0, 350.0, 33.0], "includesElement__atomic_number": [9, 16, 39], "includesElement__atomic_radius": [50.0, 100.0, 180.0], "includesElement__atomic_radius_rahm": [163.0, 214.0, 274.0], "includesElement__atomic_volume": [17.1, 15.5, 19.8], "includesElement__atomic_weight": [18.9984, 32.06, 88.90584], "includesElement__covalent_radius_cordero": [57.0, 105.0, 190.0], "includesElement__covalent_radius_pyykko": [64.0, 103.0, 163.0], "includesElement__covalent_radius_pyykko_double": [59.0, 94.0, 130.0], "includesElement__covalent_radius_pyykko_triple": [53.0, 95.0, 124.0], "includesElement__density": [0.001553, 2.07, 4.47], "includesElement__dipole_polarizability": [3.74, 19.4, 162.0], "includesElement__dipole_polarizability_unc": [0.08, 0.1, 12.0], "includesElement__discovery_year": [1886, 1789], "includesElement__electron_affinity": [3.40119, 2.077104, 0.307], "includesElement__electronegativity_allred-rochow": [0.001269531, 0.0005137148, 0.0001129135], "includesElement__electronegativity_cottrell-sutton": [0.2850439, 0.2300274, 0.1356647], "includesElement__electronegativity_ghosh": [0.344443, 0.23596, 0.1216986], "includesElement__electronegativity_gordy": [0.08125, 0.05291262, 0.01840491], "includesElement__electronegativity_mulliken": [10.412, 6.218557, 3.26213], "includesElement__electronegativity_nagle": [1.232373, 0.6762644, 0.2645668], "includesElement__electronegativity_pauling": [3.98, 2.58, 1.22], "includesElement__electronegativity_sanderson": [1.017681, 0.6397251, 0.3923941], "includesElement__en_ghosh": [0.344443, 0.23596, 0.1216986], "includesElement__en_pauling": [3.98, 2.58, 1.22], "includesElement__evaporation_heat": [6.54, 10.5, 367.0], "includesElement__fusion_heat": [0.51, 1.23, 11.5], "includesElement__glawe_number": [102, 96, 21], "includesElement__group_id": [17, 16, 3], "includesElement__heat_of_formation": [79.335, 277.17, 424.7], "includesElement__is_radioactive": [false], "includesElement__mendeleev_number": [106, 100, 12], "includesElement__molar_heat_capacity": [31.304, 22.7, 26.53], "includesElement__period": [2, 3, 5], "includesElement__pettifor_number": [102, 94, 19], "includesElement__specific_heat_capacity": [0.824, 0.708, 0.298], "includesElement__vdw_radius": [147.0, 180.0, 232.0], "includesElement__vdw_radius_alvarez": [146.0, 189.0, 275.0], "includesElement__vdw_radius_mm3": [171.0, 215.0, 271.0], "includesElement__vdw_radius_uff": [336.4, 403.5, 334.5], "includesElement__abundance_sea": [1.3, 905.0, 1.3e-05], "includesElement__atomic_weight_uncertainty": [6e-09, 2e-05], "includesElement__c6_gb": [10.2, 140.0, 2600.0], "includesElement__covalent_radius_bragg": [67.0, 102.0], "includesElement__electronegativity_allen": [24.8, 15.31, 6.631], "includesElement__en_allen": [24.8, 15.31, 6.631], "includesElement__thermal_conductivity": [0.028, 0.27], "includesElement__vdw_radius_batsanov": [150.0, 180.0, 240.0], "includesElement__c6": [9.52, 134.0], "includesElement__is_monoisotopic": [true], "includesElement__vdw_radius_dreiding": [347.2, 403.0], "includesElement__gas_basicity": [315.1, 640.2, 945.9], "includesElement__proton_affinity": [340.1, 664.3, 967.0], "includesElement__vdw_radius_bondi": [147.0, 180.0], "includesElement__vdw_radius_rt": [146.0, 181.0], "includesElement__lattice_constant": [10.47, 3.65], "includesElement__metallic_radius": [104.0, 162.0], "includesElement__metallic_radius_c12": [127.0, 180.0], "formula": ["F4S4Y4"], "spacegroup": ["194"], "thermalConductivity": [3.0058], "icsd": ["2597"], "band_gap": [2.5593], "density": [3.949883], "density_atomic": [19.61446], "deprecated": [false], "efermi": [2.063132], "energy_above_hull": [0.02649814], "energy_per_atom": [-13.79681], "formation_energy_per_atom": [-3.306057], "is_gap_direct": [false], "is_magnetic": [false], "is_metal": [false], "is_stable": [false], "nelements": [3], "nsites": [12], "num_magnetic_sites": [0], "num_unique_magnetic_sites": [0], "theoretical": [false], "total_magnetization": [2e-07], "total_magnetization_normalized_formula_units": [5e-08], "total_magnetization_normalized_vol": [8.497133e-10], "uncorrected_energy_per_atom": [-7.119771], "volume": [235.3735], "cbm": [4.6145], "vbm": [2.0552]}