{"includesElement": ["", "Mg", "Tb", "Ir"], "includesElement___series_id": [4, 9, 8], "includesElement__abundance_crust": [23300.0, 1.2, 0.001], "includesElement__atomic_number": [12, 65, 77], "includesElement__atomic_radius": [150.0, 175.0, 135.0], "includesElement__atomic_radius_rahm": [240.0, 276.0], "includesElement__atomic_volume": [14.0, 19.2, 8.54], "includesElement__atomic_weight": [24.305, 158.9254, 192.217], "includesElement__covalent_radius_cordero": [141.0, 194.0], "includesElement__covalent_radius_pyykko": [139.0, 168.0, 122.0], "includesElement__covalent_radius_pyykko_double": [132.0, 135.0, 115.0], "includesElement__covalent_radius_pyykko_triple": [127.0, 107.0], "includesElement__density": [1.74, 8.23, 22.5622], "includesElement__dipole_polarizability": [71.2, 170.0, 54.0], "includesElement__dipole_polarizability_unc": [0.4, 20.0, 7.0], "includesElement__discovery_year": [1808, 1843, 1804], "includesElement__electronegativity_allred-rochow": [0.0001475079, 0.0001009779, 0.0002620263], "includesElement__electronegativity_cottrell-sutton": [0.1431908, 0.130247, 0.1787938], "includesElement__electronegativity_ghosh": [0.121644, 0.198863, 0.25106], "includesElement__electronegativity_gordy": [0.0205036, 0.01696429, 0.03196721], "includesElement__electronegativity_mulliken": [3.823117, 3.5144, 5.26541], "includesElement__electronegativity_nagle": [0.3039835, 0.4014652, 0.5503212], "includesElement__electronegativity_pauling": [1.31, 2.2], "includesElement__electronegativity_sanderson": [0.1524211, 0.5163695, 1.475998], "includesElement__en_ghosh": [0.121644, 0.198863, 0.25106], "includesElement__en_pauling": [1.31, 2.2], "includesElement__evaporation_heat": [131.8, 389.0, 604.0], "includesElement__fusion_heat": [9.2, 27.61], "includesElement__glawe_number": [73, 25, 62], "includesElement__group_id": [2, 9], "includesElement__heat_of_formation": [147.1, 388.7, 669.0], "includesElement__is_radioactive": [false], "includesElement__lattice_constant": [3.21, 3.6, 3.84], "includesElement__mendeleev_number": [76, 29, 65], "includesElement__molar_heat_capacity": [24.869, 28.91, 25.1], "includesElement__period": [3, 6], "includesElement__pettifor_number": [73, 26, 65], "includesElement__specific_heat_capacity": [1.023, 0.182, 0.131], "includesElement__vdw_radius": [173.0, 233.0, 213.0], "includesElement__vdw_radius_alvarez": [251.0, 279.0, 241.0], "includesElement__vdw_radius_mm3": [243.0, 270.0, 236.0], "includesElement__vdw_radius_uff": [302.1, 345.1, 284.0], "includesElement__abundance_sea": [1290.0, 1.4e-07], "includesElement__c6_gb": [629.0, 2590.0, 522.0], "includesElement__covalent_radius_bragg": [142.0], "includesElement__electronegativity_allen": [7.646, 9.96], "includesElement__en_allen": [7.646, 9.96], "includesElement__metallic_radius": [136.0, 127.0], "includesElement__metallic_radius_c12": [160.0, 136.0], "includesElement__thermal_conductivity": [156.0, 11.1, 147.0], "includesElement__vdw_radius_batsanov": [220.0, 200.0], "includesElement__c6": [626.0], "includesElement__gas_basicity": [797.3], "includesElement__proton_affinity": [819.6], "includesElement__vdw_radius_bondi": [173.0], "includesElement__electron_affinity": [1.165, 1.5638], "includesElement__atomic_weight_uncertainty": [2e-05, 0.003], "includesElement__is_monoisotopic": [true], "formula": ["Ir4Mg4Tb16"], "spacegroup": ["216"], "thermalConductivity": [1.38409], "icsd": ["418743"], "band_gap": [0.0], "density": [8.722112], "density_atomic": [27.04143], "deprecated": [false], "efermi": [3.774463], "energy_above_hull": [0.0], "energy_per_atom": [-5.253976], "formation_energy_per_atom": [-0.4172496], "is_gap_direct": [false], "is_magnetic": [false], "is_metal": [true], "is_stable": [true], "nelements": [3], "nsites": [24], "num_magnetic_sites": [0], "num_unique_magnetic_sites": [0], "theoretical": [false], "total_magnetization": [2.4e-06], "total_magnetization_normalized_formula_units": [6e-07], "total_magnetization_normalized_vol": [3.698029e-09], "uncorrected_energy_per_atom": [-30.7218], "volume": [648.9943], "equilibrium_reaction_energy_per_atom": [-0.01901926]}