{"includesElement": ["", "Cd", "Li", "Pb"], "includesElement___series_id": [8, 3, 7], "includesElement__abundance_crust": [0.15, 20.0, 14.0], "includesElement__atomic_number": [48, 3, 82], "includesElement__atomic_radius": [155.0, 145.0, 180.0], "includesElement__atomic_radius_rahm": [238.0, 220.0, 249.0], "includesElement__atomic_volume": [13.1, 18.3], "includesElement__atomic_weight": [112.414, 6.94, 207.2], "includesElement__covalent_radius_cordero": [144.0, 128.0, 146.0], "includesElement__covalent_radius_pyykko": [136.0, 133.0, 144.0], "includesElement__covalent_radius_pyykko_double": [144.0, 124.0, 135.0], "includesElement__density": [8.69, 0.534, 11.3], "includesElement__dipole_polarizability": [46.0, 164.1125, 47.0], "includesElement__dipole_polarizability_unc": [2.0, 0.0005, 3.0], "includesElement__discovery_year": [1817], "includesElement__electronegativity_allred-rochow": [0.000235186, 7.3492e-05, 0.000272473], "includesElement__electronegativity_cottrell-sutton": [0.1788443, 0.09886575, 0.1980811], "includesElement__electronegativity_ghosh": [0.1504066, 0.105093, 0.177911], "includesElement__electronegativity_gordy": [0.03198529, 0.009774436, 0.03923611], "includesElement__electronegativity_mulliken": [4.496911, 3.004882, 3.886711], "includesElement__electronegativity_nagle": [0.6389612, 0.1826499, 0.4398663], "includesElement__electronegativity_pauling": [1.69, 0.98, 1.8], "includesElement__electronegativity_sanderson": [0.801562, 0.04886793, 0.9313226], "includesElement__en_ghosh": [0.1504066, 0.105093, 0.177911], "includesElement__en_pauling": [1.69, 0.98, 1.8], "includesElement__evaporation_heat": [59.1, 148.0, 177.8], "includesElement__fusion_heat": [6.11, 2.89, 4.77], "includesElement__glawe_number": [75, 12, 82], "includesElement__group_id": [12, 1, 14], "includesElement__heat_of_formation": [111.8, 159.3, 195.2], "includesElement__is_radioactive": [false], "includesElement__lattice_constant": [2.98, 3.49, 4.95], "includesElement__mendeleev_number": [78, 1, 91], "includesElement__molar_heat_capacity": [26.02, 24.86, 26.84], "includesElement__period": [5, 2, 6], "includesElement__pettifor_number": [75, 12, 82], "includesElement__specific_heat_capacity": [0.232, 3.582, 0.13], "includesElement__vdw_radius": [218.0, 182.0, 202.0], "includesElement__vdw_radius_alvarez": [249.0, 212.0, 260.0], "includesElement__vdw_radius_mm3": [250.0, 255.0, 274.0], "includesElement__vdw_radius_uff": [284.8, 245.1, 429.7], "includesElement__abundance_sea": [0.00011, 0.18, 3e-05], "includesElement__atomic_weight_uncertainty": [0.004, 0.1], "includesElement__c6_gb": [405.0, 1410.0, 534.0], "includesElement__covalent_radius_bragg": [160.0, 150.0], "includesElement__electronegativity_allen": [8.995, 5.392, 10.97], "includesElement__en_allen": [8.995, 5.392, 10.97], "includesElement__metallic_radius": [138.0, 123.0, 150.0], "includesElement__metallic_radius_c12": [151.0, 155.0, 170.0], "includesElement__thermal_conductivity": [96.9, 84.8, 35.3], "includesElement__vdw_radius_batsanov": [220.0, 230.0], "includesElement__electron_affinity": [0.618049, 0.3567432], "includesElement__c6": [1392.0], "includesElement__vdw_radius_bondi": [181.0, 202.0], "includesElement__covalent_radius_pyykko_triple": [137.0], "formula": ["Cd1Li2Pb1"], "spacegroup": ["216"], "thermalConductivity": [0.775195], "icsd": ["102015"], "band_gap": [0.0], "density": [6.908433], "density_atomic": [20.03993], "deprecated": [false], "efermi": [4.280331], "energy_above_hull": [0.03067039], "energy_per_atom": [-2.352635], "formation_energy_per_atom": [-0.2300088], "homogeneous_poisson": [0.334], "is_gap_direct": [false], "is_magnetic": [false], "is_metal": [true], "is_stable": [false], "nelements": [3], "nsites": [4], "num_magnetic_sites": [0], "num_unique_magnetic_sites": [0], "theoretical": [false], "total_magnetization": [2e-07], "total_magnetization_normalized_formula_units": [2e-07], "total_magnetization_normalized_vol": [2.495018e-09], "uncorrected_energy_per_atom": [-2.352635], "universal_anisotropy": [13.331], "volume": [80.15973]}