{"includesElement": ["", "Ni", "Si", "Hf"], "includesElement___series_id": [8, 5], "includesElement__abundance_crust": [84.0, 282000.0, 3.0], "includesElement__atomic_number": [28, 14, 72], "includesElement__atomic_radius": [135.0, 110.0, 155.0], "includesElement__atomic_radius_rahm": [229.0, 232.0, 264.0], "includesElement__atomic_volume": [6.6, 12.1, 13.6], "includesElement__atomic_weight": [58.6934, 28.085, 178.49], "includesElement__covalent_radius_cordero": [124.0, 111.0, 175.0], "includesElement__covalent_radius_pyykko": [110.0, 116.0, 152.0], "includesElement__covalent_radius_pyykko_double": [101.0, 107.0, 128.0], "includesElement__covalent_radius_pyykko_triple": [101.0, 102.0, 122.0], "includesElement__density": [8.9, 2.3296, 13.3], "includesElement__dipole_polarizability": [49.0, 37.3, 103.0], "includesElement__dipole_polarizability_unc": [3.0, 0.7, 6.0], "includesElement__discovery_year": [1751, 1824, 1923], "includesElement__electron_affinity": [1.156, 1.389521, 0.014], "includesElement__electronegativity_allred-rochow": [0.0003347107, 0.0003084126, 0.00013634], "includesElement__electronegativity_cottrell-sutton": [0.1918806, 0.1891451, 0.1439572], "includesElement__electronegativity_ghosh": [0.1472068, 0.178503, 0.229987], "includesElement__electronegativity_gordy": [0.03681818, 0.03577586, 0.02072368], "includesElement__electronegativity_mulliken": [4.397939, 4.770602, 3.419535], "includesElement__electronegativity_nagle": [0.588755, 0.4750986, 0.3386421], "includesElement__electronegativity_pauling": [1.91, 1.9, 1.3], "includesElement__electronegativity_sanderson": [0.937704, 0.3468158, 0.7352125], "includesElement__en_ghosh": [0.1472068, 0.178503, 0.229987], "includesElement__en_pauling": [1.91, 1.9, 1.3], "includesElement__evaporation_heat": [378.6, 383.0, 575.0], "includesElement__fusion_heat": [17.61, 50.6, 25.1], "includesElement__glawe_number": [69, 85, 50], "includesElement__group_id": [10, 14, 4], "includesElement__heat_of_formation": [430.1, 450.0, 618.4], "includesElement__is_radioactive": [false], "includesElement__lattice_constant": [3.52, 5.43, 3.2], "includesElement__mendeleev_number": [67, 88, 45], "includesElement__molar_heat_capacity": [26.07, 19.99, 25.73], "includesElement__period": [4, 3, 6], "includesElement__pettifor_number": [67, 85, 50], "includesElement__specific_heat_capacity": [0.444, 0.712, 0.144], "includesElement__vdw_radius": [197.0, 210.0, 223.0], "includesElement__vdw_radius_alvarez": [240.0, 219.0, 263.0], "includesElement__vdw_radius_mm3": [222.0, 229.0, 253.0], "includesElement__vdw_radius_uff": [283.4, 429.5, 314.1], "includesElement__abundance_sea": [0.00056, 2.2, 7e-06], "includesElement__atomic_weight_uncertainty": [0.0004, 0.02], "includesElement__c6_gb": [393.0, 308.0, 1040.0], "includesElement__covalent_radius_bragg": [135.0, 117.0], "includesElement__electronegativity_allen": [11.13, 11.33, 6.83], "includesElement__en_allen": [11.13, 11.33, 6.83], "includesElement__metallic_radius": [115.0, 117.0, 144.0], "includesElement__metallic_radius_c12": [124.0, 138.0, 159.0], "includesElement__thermal_conductivity": [90.9, 149.0, 23.0], "includesElement__vdw_radius_batsanov": [200.0, 210.0, 225.0], "includesElement__c6": [373.0, 305.0], "includesElement__gas_basicity": [714.1, 814.1], "includesElement__proton_affinity": [737.0, 837.0], "includesElement__vdw_radius_dreiding": [427.0], "includesElement__vdw_radius_bondi": [210.0], "formula": ["Hf6Ni4Si6"], "spacegroup": ["63"], "thermalConductivity": [6.07374], "icsd": ["200067"], "band_gap": [0.0], "density": [10.19715], "density_atomic": [15.00425], "deprecated": [false], "efermi": [7.584745], "energy_above_hull": [0.0], "energy_per_atom": [-24.12406], "formation_energy_per_atom": [-0.9066893], "is_gap_direct": [false], "is_magnetic": [false], "is_metal": [true], "is_stable": [true], "nelements": [3], "nsites": [16], "num_magnetic_sites": [0], "num_unique_magnetic_sites": [0], "theoretical": [false], "total_magnetization": [2e-07], "total_magnetization_normalized_formula_units": [1e-07], "total_magnetization_normalized_vol": [8.330971e-10], "uncorrected_energy_per_atom": [-24.12406], "volume": [240.0681], "equilibrium_reaction_energy_per_atom": [-0.005664356]}