{"includesElement": ["", "Cd", "O", "Pt"], "includesElement___series_id": [8, 1], "includesElement__abundance_crust": [0.15, 461000.0, 0.005], "includesElement__atomic_number": [48, 8, 78], "includesElement__atomic_radius": [155.0, 60.0, 135.0], "includesElement__atomic_radius_rahm": [238.0, 171.0, 230.0], "includesElement__atomic_volume": [13.1, 14.0, 9.1], "includesElement__atomic_weight": [112.414, 15.999, 195.084], "includesElement__covalent_radius_cordero": [144.0, 66.0, 136.0], "includesElement__covalent_radius_pyykko": [136.0, 63.0, 123.0], "includesElement__covalent_radius_pyykko_double": [144.0, 57.0, 112.0], "includesElement__density": [8.69, 0.001308, 21.5], "includesElement__dipole_polarizability": [46.0, 5.3, 48.0], "includesElement__dipole_polarizability_unc": [2.0, 0.2, 4.0], "includesElement__discovery_year": [1817, 1774, 1735], "includesElement__electronegativity_allred-rochow": [0.000235186, 0.001146384, 0.0002346487], "includesElement__electronegativity_cottrell-sutton": [0.1788443, 0.2687419, 0.1698876], "includesElement__electronegativity_ghosh": [0.1504066, 0.304575, 0.25691], "includesElement__electronegativity_gordy": [0.03198529, 0.07222222, 0.02886179], "includesElement__electronegativity_mulliken": [4.496911, 7.539584, 5.543415], "includesElement__electronegativity_nagle": [0.6389612, 1.042218, 0.5928156], "includesElement__electronegativity_pauling": [1.69, 3.44, 2.2], "includesElement__electronegativity_sanderson": [0.801562, 0.9416494, 1.45101], "includesElement__en_ghosh": [0.1504066, 0.304575, 0.25691], "includesElement__en_pauling": [1.69, 3.44, 2.2], "includesElement__evaporation_heat": [59.1, 470.0], "includesElement__fusion_heat": [6.11, 21.76], "includesElement__glawe_number": [75, 97, 64], "includesElement__group_id": [12, 16, 10], "includesElement__heat_of_formation": [111.8, 249.229, 565.7], "includesElement__is_radioactive": [false], "includesElement__lattice_constant": [2.98, 6.83, 3.92], "includesElement__mendeleev_number": [78, 99, 69], "includesElement__molar_heat_capacity": [26.02, 29.378, 25.86], "includesElement__period": [5, 2, 6], "includesElement__pettifor_number": [75, 101, 68], "includesElement__specific_heat_capacity": [0.232, 0.918, 0.133], "includesElement__vdw_radius": [218.0, 152.0, 213.0], "includesElement__vdw_radius_alvarez": [249.0, 150.0, 229.0], "includesElement__vdw_radius_mm3": [250.0, 182.0, 239.0], "includesElement__vdw_radius_uff": [284.8, 350.0, 275.4], "includesElement__abundance_sea": [0.00011, 857000.0], "includesElement__atomic_weight_uncertainty": [0.004, 0.009], "includesElement__c6_gb": [405.0, 16.7, 470.0], "includesElement__covalent_radius_bragg": [160.0, 65.0], "includesElement__electronegativity_allen": [8.995, 21.36, 10.16], "includesElement__en_allen": [8.995, 21.36, 10.16], "includesElement__metallic_radius": [138.0, 130.0], "includesElement__metallic_radius_c12": [151.0, 139.0], "includesElement__thermal_conductivity": [96.9, 0.027, 71.6], "includesElement__vdw_radius_batsanov": [220.0, 155.0, 205.0], "includesElement__covalent_radius_pyykko_triple": [53.0, 110.0], "includesElement__electron_affinity": [1.461113, 2.128], "includesElement__c6": [15.6], "includesElement__vdw_radius_dreiding": [340.46], "includesElement__gas_basicity": [459.6], "includesElement__proton_affinity": [485.2], "includesElement__vdw_radius_bondi": [152.0], "includesElement__vdw_radius_rt": [158.0], "formula": ["Cd1O6Pt3"], "spacegroup": ["65"], "thermalConductivity": [3.78171], "icsd": ["35407"], "band_gap": [0.2137], "density": [11.14562], "density_atomic": [11.8244], "deprecated": [false], "efermi": [4.588677], "energy_above_hull": [0.0], "energy_per_atom": [-5.962135], "formation_energy_per_atom": [-1.073436], "homogeneous_poisson": [0.336], "is_gap_direct": [false], "is_magnetic": [false], "is_metal": [false], "is_stable": [true], "nelements": [3], "nsites": [10], "num_magnetic_sites": [0], "num_unique_magnetic_sites": [0], "theoretical": [false], "total_magnetization": [0.0], "total_magnetization_normalized_formula_units": [0.0], "total_magnetization_normalized_vol": [0.0], "uncorrected_energy_per_atom": [-21.87605], "universal_anisotropy": [0.578], "volume": [118.244], "cbm": [4.7161], "e_electronic": [17.37342], "e_ionic": [1.886582], "e_total": [19.26001], "equilibrium_reaction_energy_per_atom": [-0.1004416], "n": [4.168144], "vbm": [4.5024]}