{"includesElement": ["", "S", "V", "Nb"], "includesElement___series_id": [1, 8], "includesElement__abundance_crust": [350.0, 120.0, 20.0], "includesElement__atomic_number": [16, 23, 41], "includesElement__atomic_radius": [100.0, 135.0, 145.0], "includesElement__atomic_radius_rahm": [214.0, 252.0, 251.0], "includesElement__atomic_volume": [15.5, 8.35, 10.8], "includesElement__atomic_weight": [32.06, 50.9415, 92.90637], "includesElement__covalent_radius_cordero": [105.0, 153.0, 164.0], "includesElement__covalent_radius_pyykko": [103.0, 134.0, 147.0], "includesElement__covalent_radius_pyykko_double": [94.0, 112.0, 125.0], "includesElement__covalent_radius_pyykko_triple": [95.0, 106.0, 116.0], "includesElement__density": [2.07, 6.0, 8.57], "includesElement__dipole_polarizability": [19.4, 87.0, 98.0], "includesElement__dipole_polarizability_unc": [0.1, 10.0, 8.0], "includesElement__electron_affinity": [2.077104, 0.525, 0.917406], "includesElement__electronegativity_allred-rochow": [0.0005137148, 0.0001837826, 0.0001295756], "includesElement__electronegativity_cottrell-sutton": [0.2300274, 0.1569295, 0.1380131], "includesElement__electronegativity_ghosh": [0.23596, 0.1273344, 0.1280782], "includesElement__electronegativity_gordy": [0.05291262, 0.02462687, 0.01904762], "includesElement__electronegativity_mulliken": [6.218557, 3.635594, 3.838128], "includesElement__electronegativity_nagle": [0.6762644, 0.3859078, 0.3708924], "includesElement__electronegativity_pauling": [2.58, 1.63, 1.6], "includesElement__electronegativity_sanderson": [0.6397251, 0.4388898, 0.5561695], "includesElement__en_ghosh": [0.23596, 0.1273344, 0.1280782], "includesElement__en_pauling": [2.58, 1.63, 1.6], "includesElement__evaporation_heat": [10.5, 460.0, 680.0], "includesElement__fusion_heat": [1.23, 17.5, 26.8], "includesElement__glawe_number": [96, 54, 53], "includesElement__group_id": [16, 5], "includesElement__heat_of_formation": [277.17, 515.5, 733.0], "includesElement__is_radioactive": [false], "includesElement__lattice_constant": [10.47, 3.02, 3.3], "includesElement__mendeleev_number": [100, 47, 48], "includesElement__molar_heat_capacity": [22.7, 24.89, 24.6], "includesElement__period": [3, 4, 5], "includesElement__pettifor_number": [94, 54, 52], "includesElement__specific_heat_capacity": [0.708, 0.489, 0.265], "includesElement__vdw_radius": [180.0, 207.0, 218.0], "includesElement__vdw_radius_alvarez": [189.0, 242.0, 256.0], "includesElement__vdw_radius_mm3": [215.0, 229.0, 243.0], "includesElement__vdw_radius_uff": [403.5, 314.4, 316.5], "includesElement__abundance_sea": [905.0, 0.0025, 1e-05], "includesElement__c6_gb": [140.0, 955.0, 1140.0], "includesElement__covalent_radius_bragg": [102.0], "includesElement__electronegativity_allen": [15.31, 9.063, 8.34], "includesElement__en_allen": [15.31, 9.063, 8.34], "includesElement__metallic_radius": [104.0, 122.0, 134.0], "includesElement__metallic_radius_c12": [127.0, 134.0, 146.0], "includesElement__thermal_conductivity": [0.27, 30.7, 53.7], "includesElement__vdw_radius_batsanov": [180.0, 205.0, 215.0], "includesElement__c6": [134.0, 832.0], "includesElement__vdw_radius_dreiding": [403.0], "includesElement__gas_basicity": [640.2, 836.8], "includesElement__proton_affinity": [664.3, 859.4], "includesElement__vdw_radius_bondi": [180.0], "includesElement__vdw_radius_rt": [181.0], "includesElement__discovery_year": [1830, 1801], "includesElement__atomic_weight_uncertainty": [0.0001, 2e-05], "includesElement__is_monoisotopic": [true], "formula": ["Nb6S12V2"], "spacegroup": ["182"], "thermalConductivity": [7.57013], "icsd": ["42650"], "band_gap": [0.0], "density": [4.829384], "density_atomic": [17.95023], "deprecated": [false], "efermi": [6.018497], "energy_above_hull": [0.0], "energy_per_atom": [-7.882646], "formation_energy_per_atom": [-1.460848], "is_gap_direct": [false], "is_magnetic": [true], "is_metal": [true], "is_stable": [true], "nelements": [3], "nsites": [20], "num_magnetic_sites": [2], "num_unique_magnetic_sites": [1], "theoretical": [false], "total_magnetization": [4.028704], "total_magnetization_normalized_formula_units": [2.014352], "total_magnetization_normalized_vol": [0.01122187], "uncorrected_energy_per_atom": [-15.00347], "volume": [359.0046], "equilibrium_reaction_energy_per_atom": [-0.03772082]}