{"includesElement": ["", "Cu", "K", "Te"], "includesElement___series_id": [8, 3, 5], "includesElement__abundance_crust": [60.0, 20900.0, 0.001], "includesElement__atomic_number": [29, 19, 52], "includesElement__atomic_radius": [135.0, 220.0, 140.0], "includesElement__atomic_radius_rahm": [217.0, 234.0, 242.0], "includesElement__atomic_volume": [7.1, 45.3, 20.5], "includesElement__atomic_weight": [63.546, 39.0983, 127.6], "includesElement__covalent_radius_cordero": [132.0, 203.0, 138.0], "includesElement__covalent_radius_pyykko": [112.0, 196.0, 136.0], "includesElement__covalent_radius_pyykko_double": [115.0, 193.0, 128.0], "includesElement__covalent_radius_pyykko_triple": [120.0, 121.0], "includesElement__density": [8.96, 0.89, 6.232], "includesElement__dipole_polarizability": [46.5, 289.7, 38.0], "includesElement__dipole_polarizability_unc": [0.5, 0.3, 4.0], "includesElement__electron_affinity": [1.235, 0.50147, 1.970876], "includesElement__electronegativity_allred-rochow": [0.0002949617, 5.726781e-05, 0.0003757569], "includesElement__electronegativity_cottrell-sutton": [0.1817573, 0.1059457, 0.2260596], "includesElement__electronegativity_ghosh": [0.1511716, 0.0981896, 0.2056992], "includesElement__electronegativity_gordy": [0.03303571, 0.01122449, 0.05110294], "includesElement__electronegativity_mulliken": [4.48069, 2.421067, 5.490268], "includesElement__electronegativity_nagle": [0.6184623, 0.1511299, 0.5404919], "includesElement__electronegativity_pauling": [1.9, 0.82, 2.1], "includesElement__electronegativity_sanderson": [0.9175542, 0.1218383, 0.8622506], "includesElement__en_ghosh": [0.1511716, 0.0981896, 0.2056992], "includesElement__en_pauling": [1.9, 0.82, 2.1], "includesElement__evaporation_heat": [304.6, 2.33, 49.8], "includesElement__fusion_heat": [13.01, 102.5, 17.91], "includesElement__glawe_number": [68, 10, 94], "includesElement__group_id": [11, 1, 16], "includesElement__heat_of_formation": [337.4, 89.0, 196.6], "includesElement__is_radioactive": [false], "includesElement__lattice_constant": [3.61, 5.23, 4.45], "includesElement__mendeleev_number": [71, 3, 102], "includesElement__molar_heat_capacity": [24.44, 29.6, 25.73], "includesElement__period": [4, 5], "includesElement__pettifor_number": [72, 10, 92], "includesElement__specific_heat_capacity": [0.385, 0.757, 0.202], "includesElement__vdw_radius": [196.0, 275.0, 206.0], "includesElement__vdw_radius_alvarez": [238.0, 273.0, 199.0], "includesElement__vdw_radius_mm3": [226.0, 309.0, 244.0], "includesElement__vdw_radius_uff": [349.5, 381.2, 447.0], "includesElement__abundance_sea": [0.00025, 399.0], "includesElement__atomic_weight_uncertainty": [0.003, 0.0001, 0.03], "includesElement__c6_gb": [264.0, 3910.0, 471.0], "includesElement__covalent_radius_bragg": [137.0, 207.0, 133.0], "includesElement__electronegativity_allen": [10.96, 4.34, 12.76], "includesElement__en_allen": [10.96, 4.34, 12.76], "includesElement__metallic_radius": [118.0, 203.0, 137.0], "includesElement__metallic_radius_c12": [128.0, 235.0, 160.0], "includesElement__thermal_conductivity": [401.0, 79.0, 14.3], "includesElement__vdw_radius_batsanov": [200.0, 280.0, 210.0], "includesElement__c6": [253.0, 3923.0, 445.0], "includesElement__gas_basicity": [632.4], "includesElement__proton_affinity": [655.3], "includesElement__discovery_year": [1807, 1782], "includesElement__vdw_radius_bondi": [275.0, 206.0], "includesElement__vdw_radius_dreiding": [423.0], "formula": ["Cu2K2Te2"], "spacegroup": ["194"], "thermalConductivity": [1.49648], "icsd": ["12158"], "band_gap": [0.6037], "density": [4.454192], "density_atomic": [28.61198], "deprecated": [false], "efermi": [3.583729], "energy_above_hull": [0.0], "energy_per_atom": [-3.514691], "formation_energy_per_atom": [-0.7233971], "homogeneous_poisson": [0.247], "is_gap_direct": [true], "is_magnetic": [false], "is_metal": [false], "is_stable": [true], "nelements": [3], "nsites": [6], "num_magnetic_sites": [0], "num_unique_magnetic_sites": [0], "theoretical": [false], "total_magnetization": [0.0], "total_magnetization_normalized_formula_units": [0.0], "total_magnetization_normalized_vol": [0.0], "uncorrected_energy_per_atom": [-14.79718], "universal_anisotropy": [1.296], "volume": [171.6719], "cbm": [3.998], "e_electronic": [8.973498], "e_ionic": [3.074218], "e_total": [12.04772], "equilibrium_reaction_energy_per_atom": [-0.02032988], "n": [2.99558], "vbm": [3.3943]}