{"includesElement": ["", "Tl", "Sc", "C"], "includesElement___series_id": [7, 8, 1], "includesElement__abundance_crust": [0.85, 22.0, 200.0], "includesElement__atomic_number": [81, 21, 6], "includesElement__atomic_radius": [190.0, 160.0, 70.0], "includesElement__atomic_radius_rahm": [242.0, 263.0, 190.0], "includesElement__atomic_volume": [17.2, 15.0, 5.3], "includesElement__atomic_weight": [204.38, 44.95591, 12.011], "includesElement__covalent_radius_cordero": [145.0, 170.0, 73.0], "includesElement__covalent_radius_pyykko": [144.0, 148.0, 75.0], "includesElement__covalent_radius_pyykko_double": [142.0, 116.0, 67.0], "includesElement__covalent_radius_pyykko_triple": [150.0, 114.0, 60.0], "includesElement__density": [11.8, 2.99, 2.2], "includesElement__dipole_polarizability": [50.0, 97.0, 11.3], "includesElement__dipole_polarizability_unc": [2.0, 10.0, 0.2], "includesElement__discovery_year": [1861, 1879], "includesElement__electron_affinity": [0.377, 0.188, 1.262119], "includesElement__electronegativity_allred-rochow": [0.0002411265, 0.0001369613, 0.0005777778], "includesElement__electronegativity_cottrell-sutton": [0.186339, 0.1423737, 0.2081666], "includesElement__electronegativity_ghosh": [0.173447, 0.1193833, 0.224776], "includesElement__electronegativity_gordy": [0.03472222, 0.02027027, 0.04333333], "includesElement__electronegativity_mulliken": [3.242643, 3.374745, 6.261208], "includesElement__electronegativity_nagle": [0.3914868, 0.3138941, 0.7073926], "includesElement__electronegativity_pauling": [1.8, 1.36, 2.55], "includesElement__electronegativity_sanderson": [0.9245096, 0.3038674, 0.427525], "includesElement__en_ghosh": [0.173447, 0.1193833, 0.224776], "includesElement__en_pauling": [1.8, 1.36, 2.55], "includesElement__evaporation_heat": [162.4, 332.7], "includesElement__fusion_heat": [4.31, 15.8], "includesElement__glawe_number": [81, 48, 87], "includesElement__group_id": [13, 3, 14], "includesElement__heat_of_formation": [182.2, 377.8, 716.87], "includesElement__is_radioactive": [false], "includesElement__lattice_constant": [3.46, 3.31, 3.57], "includesElement__mendeleev_number": [85, 11, 87], "includesElement__molar_heat_capacity": [26.32, 25.52, 8.517], "includesElement__period": [6, 4, 2], "includesElement__pettifor_number": [78, 20, 95], "includesElement__specific_heat_capacity": [0.129, 0.568, 0.709], "includesElement__vdw_radius": [196.0, 215.0, 170.0], "includesElement__vdw_radius_alvarez": [247.0, 258.0, 177.0], "includesElement__vdw_radius_mm3": [259.0, 261.0, 204.0], "includesElement__vdw_radius_uff": [434.7, 329.5, 385.1], "includesElement__abundance_sea": [1.9e-05, 6e-07, 28.0], "includesElement__c6_gb": [509.0, 1570.0, 47.9], "includesElement__covalent_radius_bragg": [190.0, 77.0], "includesElement__metallic_radius": [144.0], "includesElement__metallic_radius_c12": [160.0, 162.0, 86.0], "includesElement__thermal_conductivity": [46.1, 15.8, 1.59], "includesElement__vdw_radius_batsanov": [220.0, 230.0, 170.0], "includesElement__vdw_radius_bondi": [196.0, 170.0], "includesElement__atomic_weight_uncertainty": [5e-06], "includesElement__electronegativity_allen": [7.042, 15.05], "includesElement__en_allen": [7.042, 15.05], "includesElement__c6": [1383.0, 46.6], "includesElement__is_monoisotopic": [true], "includesElement__gas_basicity": [892.0], "includesElement__proton_affinity": [914.0], "includesElement__vdw_radius_dreiding": [389.83], "includesElement__vdw_radius_rt": [177.0], "formula": ["C1Sc3Tl1"], "spacegroup": ["221"], "thermalConductivity": [14.2133], "icsd": ["50164"], "band_gap": [0.0], "density": [6.215918], "density_atomic": [18.76742], "deprecated": [false], "efermi": [5.498261], "energy_above_hull": [0.0], "energy_per_atom": [-6.739378], "formation_energy_per_atom": [-0.6198689], "homogeneous_poisson": [0.172], "is_gap_direct": [false], "is_magnetic": [false], "is_metal": [true], "is_stable": [true], "nelements": [3], "nsites": [5], "num_magnetic_sites": [0], "num_unique_magnetic_sites": [0], "theoretical": [false], "total_magnetization": [7.4e-06], "total_magnetization_normalized_formula_units": [7.4e-06], "total_magnetization_normalized_vol": [7.886005e-08], "uncorrected_energy_per_atom": [-20.20917], "universal_anisotropy": [0.008], "volume": [93.83712], "equilibrium_reaction_energy_per_atom": [-0.3020541]}