{"includesElement": ["", "Tl", "N"], "includesElement___series_id": [7, 1], "includesElement__abundance_crust": [0.85, 19.0], "includesElement__atomic_number": [81, 7], "includesElement__atomic_radius": [190.0, 65.0], "includesElement__atomic_radius_rahm": [242.0, 179.0], "includesElement__atomic_volume": [17.2, 17.3], "includesElement__atomic_weight": [204.38, 14.007], "includesElement__covalent_radius_cordero": [145.0, 71.0], "includesElement__covalent_radius_pyykko": [144.0, 71.0], "includesElement__covalent_radius_pyykko_double": [142.0, 60.0], "includesElement__covalent_radius_pyykko_triple": [150.0, 54.0], "includesElement__density": [11.8, 0.001145], "includesElement__dipole_polarizability": [50.0, 7.4], "includesElement__dipole_polarizability_unc": [2.0, 0.2], "includesElement__discovery_year": [1861, 1772], "includesElement__electron_affinity": [0.377, -1.4], "includesElement__electronegativity_allred-rochow": [0.0002411265, 0.000773656], "includesElement__electronegativity_cottrell-sutton": [0.186339, 0.2343706], "includesElement__electronegativity_ghosh": [0.173447, 0.26493], "includesElement__electronegativity_gordy": [0.03472222, 0.05492958], "includesElement__electronegativity_mulliken": [3.242643, 6.567065], "includesElement__electronegativity_nagle": [0.3914868, 0.8774979], "includesElement__electronegativity_pauling": [1.8, 3.04], "includesElement__electronegativity_sanderson": [0.9245096, 0.577482], "includesElement__en_ghosh": [0.173447, 0.26493], "includesElement__en_pauling": [1.8, 3.04], "includesElement__evaporation_heat": [162.4], "includesElement__fusion_heat": [4.31], "includesElement__glawe_number": [81, 88], "includesElement__group_id": [13, 15], "includesElement__heat_of_formation": [182.2, 472.44], "includesElement__is_radioactive": [false], "includesElement__lattice_constant": [3.46, 4.039], "includesElement__mendeleev_number": [85, 93], "includesElement__molar_heat_capacity": [26.32, 29.124], "includesElement__period": [6, 2], "includesElement__pettifor_number": [78, 100], "includesElement__specific_heat_capacity": [0.129, 1.04], "includesElement__vdw_radius": [196.0, 155.0], "includesElement__vdw_radius_alvarez": [247.0, 166.0], "includesElement__vdw_radius_mm3": [259.0, 193.0], "includesElement__vdw_radius_uff": [434.7, 366.0], "includesElement__abundance_sea": [1.9e-05, 0.5], "includesElement__c6_gb": [509.0, 25.7], "includesElement__covalent_radius_bragg": [190.0, 65.0], "includesElement__metallic_radius": [144.0], "includesElement__metallic_radius_c12": [160.0, 53.0], "includesElement__thermal_conductivity": [46.1, 0.026], "includesElement__vdw_radius_batsanov": [220.0, 160.0], "includesElement__vdw_radius_bondi": [196.0, 155.0], "includesElement__electronegativity_allen": [18.13], "includesElement__en_allen": [18.13], "includesElement__c6": [24.2], "includesElement__vdw_radius_dreiding": [366.21], "includesElement__gas_basicity": [318.7], "includesElement__proton_affinity": [342.2], "includesElement__vdw_radius_rt": [164.0], "formula": ["N1Tl1"], "spacegroup": ["216"], "thermalConductivity": [3.91552], "icsd": ["184575"], "band_gap": [0.0], "density": [9.899554], "density_atomic": [18.31624], "deprecated": [false], "efermi": [5.022558], "energy_above_hull": [0.7337388], "energy_per_atom": [-30.42029], "formation_energy_per_atom": [0.7337388], "homogeneous_poisson": [0.329], "is_gap_direct": [false], "is_magnetic": [false], "is_metal": [true], "is_stable": [false], "nelements": [2], "nsites": [2], "num_magnetic_sites": [0], "num_unique_magnetic_sites": [0], "theoretical": [true], "total_magnetization": [8.64e-05], "total_magnetization_normalized_formula_units": [8.64e-05], "total_magnetization_normalized_vol": [2.358563e-06], "uncorrected_energy_per_atom": [-4.43533], "universal_anisotropy": [1.556], "volume": [36.63247]}