{"includesElement": ["", "P", "Sb", "Hf"], "includesElement___series_id": [1, 5, 8], "includesElement__abundance_crust": [1050.0, 0.2, 3.0], "includesElement__atomic_number": [15, 51, 72], "includesElement__atomic_radius": [100.0, 145.0, 155.0], "includesElement__atomic_radius_rahm": [223.0, 246.0, 264.0], "includesElement__atomic_volume": [17.0, 18.4, 13.6], "includesElement__atomic_weight": [30.97376, 121.76, 178.49], "includesElement__covalent_radius_cordero": [107.0, 139.0, 175.0], "includesElement__covalent_radius_pyykko": [111.0, 140.0, 152.0], "includesElement__covalent_radius_pyykko_double": [102.0, 133.0, 128.0], "includesElement__covalent_radius_pyykko_triple": [94.0, 127.0, 122.0], "includesElement__density": [1.823, 6.68, 13.3], "includesElement__dipole_polarizability": [25.0, 43.0, 103.0], "includesElement__dipole_polarizability_unc": [1.0, 2.0, 6.0], "includesElement__discovery_year": [1669, 1923], "includesElement__electron_affinity": [0.746607, 1.046, 0.014], "includesElement__electronegativity_allred-rochow": [0.0003895788, 0.0003214286, 0.00013634], "includesElement__electronegativity_cottrell-sutton": [0.2079501, 0.212132, 0.1439572], "includesElement__electronegativity_ghosh": [0.206931, 0.1918774, 0.229987], "includesElement__electronegativity_gordy": [0.04324324, 0.045, 0.02072368], "includesElement__electronegativity_mulliken": [5.616646, 4.827195, 3.419535], "includesElement__electronegativity_nagle": [0.5848035, 0.4880907, 0.3386421], "includesElement__electronegativity_pauling": [2.19, 2.05, 1.3], "includesElement__electronegativity_sanderson": [0.4510269, 0.7762722, 0.7352125], "includesElement__en_ghosh": [0.206931, 0.1918774, 0.229987], "includesElement__en_pauling": [2.19, 2.05, 1.3], "includesElement__evaporation_heat": [49.8, 195.2, 575.0], "includesElement__fusion_heat": [2.51, 20.08, 25.1], "includesElement__glawe_number": [89, 91, 50], "includesElement__group_id": [15, 4], "includesElement__heat_of_formation": [316.5, 264.4, 618.4], "includesElement__is_radioactive": [false], "includesElement__lattice_constant": [7.17, 4.51, 3.2], "includesElement__mendeleev_number": [94, 96, 45], "includesElement__molar_heat_capacity": [23.824, 25.23, 25.73], "includesElement__period": [3, 5, 6], "includesElement__pettifor_number": [90, 88, 50], "includesElement__specific_heat_capacity": [0.769, 0.207, 0.144], "includesElement__vdw_radius": [180.0, 206.0, 223.0], "includesElement__vdw_radius_alvarez": [190.0, 247.0, 263.0], "includesElement__vdw_radius_mm3": [222.0, 252.0, 253.0], "includesElement__vdw_radius_uff": [414.7, 442.0, 314.1], "includesElement__abundance_sea": [0.06, 0.00024, 7e-06], "includesElement__atomic_weight_uncertainty": [5e-09, 0.001, 0.02], "includesElement__c6_gb": [187.0, 504.0, 1040.0], "includesElement__electronegativity_allen": [13.33, 11.74, 6.83], "includesElement__en_allen": [13.33, 11.74, 6.83], "includesElement__metallic_radius": [110.0, 139.0, 144.0], "includesElement__metallic_radius_c12": [128.0, 166.0, 159.0], "includesElement__vdw_radius_batsanov": [195.0, 220.0, 225.0], "includesElement__c6": [185.0, 492.0], "includesElement__is_monoisotopic": [true], "includesElement__vdw_radius_dreiding": [415.0, 435.0], "includesElement__gas_basicity": [604.8], "includesElement__proton_affinity": [626.8], "includesElement__vdw_radius_bondi": [180.0], "includesElement__covalent_radius_bragg": [140.0], "includesElement__thermal_conductivity": [24.43, 23.0], "includesElement__vdw_radius_truhlar": [206.0], "formula": ["Hf4P2Sb2"], "spacegroup": ["194"], "thermalConductivity": [7.22786], "icsd": ["153679"], "band_gap": [0.0], "density": [10.34006], "density_atomic": [20.46408], "deprecated": [false], "efermi": [7.198056], "energy_above_hull": [0.0], "energy_per_atom": [-32.34639], "formation_energy_per_atom": [-1.093587], "homogeneous_poisson": [0.263], "is_gap_direct": [false], "is_magnetic": [false], "is_metal": [true], "is_stable": [true], "nelements": [3], "nsites": [8], "num_magnetic_sites": [0], "num_unique_magnetic_sites": [0], "theoretical": [false], "total_magnetization": [2e-07], "total_magnetization_normalized_formula_units": [1e-07], "total_magnetization_normalized_vol": [1.221653e-09], "uncorrected_energy_per_atom": [-32.34639], "universal_anisotropy": [0.926], "volume": [163.7126], "equilibrium_reaction_energy_per_atom": [-0.07152908]}