{"includesElement": ["", "K", "Br"], "includesElement___series_id": [3, 6], "includesElement__abundance_crust": [20900.0, 2.4], "includesElement__atomic_number": [19, 35], "includesElement__atomic_radius": [220.0, 115.0], "includesElement__atomic_radius_rahm": [234.0, 219.0], "includesElement__atomic_volume": [45.3, 23.5], "includesElement__atomic_weight": [39.0983, 79.904], "includesElement__covalent_radius_cordero": [203.0, 120.0], "includesElement__covalent_radius_pyykko": [196.0, 114.0], "includesElement__covalent_radius_pyykko_double": [193.0, 109.0], "includesElement__density": [0.89, 3.1028], "includesElement__dipole_polarizability": [289.7, 21.0], "includesElement__dipole_polarizability_unc": [0.3, 1.0], "includesElement__discovery_year": [1807, 1826], "includesElement__electron_affinity": [0.50147, 3.363588], "includesElement__electronegativity_allred-rochow": [5.726781e-05, 0.0005847953], "includesElement__electronegativity_cottrell-sutton": [0.1059457, 0.2581989], "includesElement__electronegativity_ghosh": [0.0981896, 0.2412578], "includesElement__electronegativity_gordy": [0.01122449, 0.06666667], "includesElement__electronegativity_mulliken": [2.421067, 7.588699], "includesElement__electronegativity_nagle": [0.1511299, 0.6933613], "includesElement__electronegativity_pauling": [0.82, 2.96], "includesElement__electronegativity_sanderson": [0.1218383, 1.049026], "includesElement__en_ghosh": [0.0981896, 0.2412578], "includesElement__en_pauling": [0.82, 2.96], "includesElement__evaporation_heat": [2.33, 29.56], "includesElement__fusion_heat": [102.5, 10.57], "includesElement__glawe_number": [10, 100], "includesElement__group_id": [1, 17], "includesElement__heat_of_formation": [89.0, 111.85], "includesElement__is_radioactive": [false], "includesElement__lattice_constant": [5.23, 6.67], "includesElement__mendeleev_number": [3, 108], "includesElement__molar_heat_capacity": [29.6, 75.69], "includesElement__period": [4], "includesElement__pettifor_number": [10, 98], "includesElement__specific_heat_capacity": [0.757, 0.474], "includesElement__vdw_radius": [275.0, 185.0], "includesElement__vdw_radius_alvarez": [273.0, 186.0], "includesElement__vdw_radius_mm3": [309.0, 222.0], "includesElement__vdw_radius_uff": [381.2, 418.9], "includesElement__abundance_sea": [399.0, 67.3], "includesElement__atomic_weight_uncertainty": [0.0001], "includesElement__c6_gb": [3910.0, 187.0], "includesElement__covalent_radius_bragg": [207.0, 119.0], "includesElement__electronegativity_allen": [4.34, 15.88], "includesElement__en_allen": [4.34, 15.88], "includesElement__metallic_radius": [203.0], "includesElement__metallic_radius_c12": [235.0, 117.0], "includesElement__thermal_conductivity": [79.0, 0.005], "includesElement__vdw_radius_batsanov": [280.0, 190.0], "includesElement__c6": [3923.0, 162.0], "includesElement__vdw_radius_bondi": [275.0, 183.0], "includesElement__covalent_radius_pyykko_triple": [110.0], "includesElement__vdw_radius_dreiding": [395.0], "includesElement__gas_basicity": [531.2], "includesElement__proton_affinity": [554.4], "includesElement__vdw_radius_rt": [187.0], "formula": ["Br1K1", "BrK"], "mp_id": ["mp-23251"], "spacegroup": ["225"], "thermalConductivity": [0.84292, 2.862146, 3.045432], "icsd": ["18015"], "band_gap": [4.3224], "density": [2.763056], "density_atomic": [35.75895], "deprecated": [false], "efermi": [-1.814476], "energy_above_hull": [0.0], "energy_per_atom": [-11.62501], "formation_energy_per_atom": [-2.040195], "homogeneous_poisson": [0.265], "is_gap_direct": [true], "is_magnetic": [false], "is_metal": [false], "is_stable": [true], "nelements": [2], "nsites": [2], "num_magnetic_sites": [0], "num_unique_magnetic_sites": [0], "theoretical": [false], "total_magnetization": [0.0], "total_magnetization_normalized_formula_units": [0.0], "total_magnetization_normalized_vol": [0.0], "uncorrected_energy_per_atom": [-11.62501], "universal_anisotropy": [0.994], "volume": [71.5179], "cbm": [2.4075], "e_electronic": [2.75412], "e_ionic": [2.074778], "e_total": [4.828897], "equilibrium_reaction_energy_per_atom": [-2.040195], "n": [1.659554], "vbm": [-1.9149]}