{"includesElement": ["", "Sb", "Pt", "Dy"], "includesElement___series_id": [5, 8, 9], "includesElement__abundance_crust": [0.2, 0.005, 5.2], "includesElement__atomic_number": [51, 78, 66], "includesElement__atomic_radius": [145.0, 135.0, 175.0], "includesElement__atomic_radius_rahm": [246.0, 230.0, 275.0], "includesElement__atomic_volume": [18.4, 9.1, 19.0], "includesElement__atomic_weight": [121.76, 195.084, 162.5], "includesElement__covalent_radius_cordero": [139.0, 136.0, 192.0], "includesElement__covalent_radius_pyykko": [140.0, 123.0, 167.0], "includesElement__covalent_radius_pyykko_double": [133.0, 112.0], "includesElement__covalent_radius_pyykko_triple": [127.0, 110.0], "includesElement__density": [6.68, 21.5, 8.55], "includesElement__dipole_polarizability": [43.0, 48.0, 163.0], "includesElement__dipole_polarizability_unc": [2.0, 4.0, 15.0], "includesElement__electron_affinity": [1.046, 2.128, 0.352], "includesElement__electronegativity_allred-rochow": [0.0003214286, 0.0002346487, 0.0001021908], "includesElement__electronegativity_cottrell-sutton": [0.212132, 0.1698876, 0.1306364], "includesElement__electronegativity_ghosh": [0.1918774, 0.25691, 0.20333], "includesElement__electronegativity_gordy": [0.045, 0.02886179, 0.01706587], "includesElement__electronegativity_mulliken": [4.827195, 5.543415, 3.145525], "includesElement__electronegativity_nagle": [0.4880907, 0.5928156, 0.4191131], "includesElement__electronegativity_pauling": [2.05, 2.2, 1.22], "includesElement__electronegativity_sanderson": [0.7762722, 1.45101, 0.5297338], "includesElement__en_ghosh": [0.1918774, 0.25691, 0.20333], "includesElement__en_pauling": [2.05, 2.2, 1.22], "includesElement__evaporation_heat": [195.2, 470.0, 291.0], "includesElement__fusion_heat": [20.08, 21.76], "includesElement__glawe_number": [91, 64, 24], "includesElement__group_id": [15, 10], "includesElement__heat_of_formation": [264.4, 565.7, 290.4], "includesElement__is_radioactive": [false], "includesElement__lattice_constant": [4.51, 3.92, 3.59], "includesElement__mendeleev_number": [96, 69, 31], "includesElement__molar_heat_capacity": [25.23, 25.86, 28.16], "includesElement__period": [5, 6], "includesElement__pettifor_number": [88, 68, 25], "includesElement__specific_heat_capacity": [0.207, 0.133, 0.173], "includesElement__vdw_radius": [206.0, 213.0, 231.0], "includesElement__vdw_radius_alvarez": [247.0, 229.0, 287.0], "includesElement__vdw_radius_mm3": [252.0, 239.0, 290.0], "includesElement__vdw_radius_uff": [442.0, 275.4, 342.8], "includesElement__abundance_sea": [0.00024, 9.1e-07], "includesElement__atomic_weight_uncertainty": [0.001, 0.009], "includesElement__c6_gb": [504.0, 470.0, 2430.0], "includesElement__covalent_radius_bragg": [140.0], "includesElement__electronegativity_allen": [11.74, 10.16], "includesElement__en_allen": [11.74, 10.16], "includesElement__metallic_radius": [139.0, 130.0], "includesElement__metallic_radius_c12": [166.0, 139.0], "includesElement__thermal_conductivity": [24.43, 71.6, 10.7], "includesElement__vdw_radius_batsanov": [220.0, 205.0], "includesElement__c6": [492.0], "includesElement__vdw_radius_dreiding": [435.0], "includesElement__vdw_radius_truhlar": [206.0], "includesElement__discovery_year": [1735, 1886], "formula": ["Dy1Pt1Sb1", "DySbPt"], "mp_id": ["16327"], "spacegroup": ["216"], "thermalConductivity": [5.75835, 4.43], "icsd": ["53374"], "band_gap": [0.0493], "density": [11.22367], "density_atomic": [23.63962], "deprecated": [false], "efermi": [6.219319], "energy_above_hull": [0.0], "energy_per_atom": [-6.217699], "formation_energy_per_atom": [-1.278196], "homogeneous_poisson": [0.293], "is_gap_direct": [true], "is_magnetic": [false], "is_metal": [false], "is_stable": [true], "nelements": [3], "nsites": [3], "num_magnetic_sites": [0], "num_unique_magnetic_sites": [0], "theoretical": [false], "total_magnetization": [0.0], "total_magnetization_normalized_formula_units": [0.0], "total_magnetization_normalized_vol": [0.0], "uncorrected_energy_per_atom": [-37.7744], "universal_anisotropy": [0.001], "volume": [70.91885], "cbm": [6.2425], "e_electronic": [23.51062], "e_ionic": [1.270345], "e_total": [24.78096], "equilibrium_reaction_energy_per_atom": [-0.2487897], "n": [4.848775], "vbm": [6.1932], "e_ij_max": [0.34776]}