{"includesElement": ["", "Tl", "Yb"], "includesElement___series_id": [7, 9], "includesElement__abundance_crust": [0.85, 3.2], "includesElement__atomic_number": [81, 70], "includesElement__atomic_radius": [190.0, 175.0], "includesElement__atomic_radius_rahm": [242.0, 277.0], "includesElement__atomic_volume": [17.2, 24.8], "includesElement__atomic_weight": [204.38, 173.045], "includesElement__covalent_radius_cordero": [145.0, 187.0], "includesElement__covalent_radius_pyykko": [144.0, 170.0], "includesElement__covalent_radius_pyykko_double": [142.0, 129.0], "includesElement__covalent_radius_pyykko_triple": [150.0], "includesElement__density": [11.8, 6.9], "includesElement__dipole_polarizability": [50.0, 139.0], "includesElement__dipole_polarizability_unc": [2.0, 6.0], "includesElement__discovery_year": [1861, 1878], "includesElement__electron_affinity": [0.377, -0.02], "includesElement__electronegativity_allred-rochow": [0.0002411265, 9.861592e-05], "includesElement__electronegativity_cottrell-sutton": [0.186339, 0.1294786], "includesElement__electronegativity_ghosh": [0.173447, 0.22119], "includesElement__electronegativity_gordy": [0.03472222, 0.01676471], "includesElement__electronegativity_mulliken": [3.242643, 3.11708], "includesElement__electronegativity_nagle": [0.3914868, 0.4864465], "includesElement__electronegativity_pauling": [1.8], "includesElement__electronegativity_sanderson": [0.9245096, 0.5176678], "includesElement__en_ghosh": [0.173447, 0.22119], "includesElement__en_pauling": [1.8], "includesElement__evaporation_heat": [162.4, 159.0], "includesElement__fusion_heat": [4.31, 3.35], "includesElement__glawe_number": [81, 18], "includesElement__group_id": [13], "includesElement__heat_of_formation": [182.2, 155.6], "includesElement__is_radioactive": [false], "includesElement__lattice_constant": [3.46, 5.49], "includesElement__mendeleev_number": [85, 39], "includesElement__molar_heat_capacity": [26.32, 26.74], "includesElement__period": [6], "includesElement__pettifor_number": [78, 17], "includesElement__specific_heat_capacity": [0.129, 0.155], "includesElement__vdw_radius": [196.0, 226.0], "includesElement__vdw_radius_alvarez": [247.0, 280.0], "includesElement__vdw_radius_mm3": [259.0, 279.0], "includesElement__vdw_radius_uff": [434.7, 335.5], "includesElement__abundance_sea": [1.9e-05, 8.2e-07], "includesElement__c6_gb": [509.0, 1910.0], "includesElement__covalent_radius_bragg": [190.0], "includesElement__metallic_radius": [144.0], "includesElement__metallic_radius_c12": [160.0], "includesElement__thermal_conductivity": [46.1], "includesElement__vdw_radius_batsanov": [220.0], "includesElement__vdw_radius_bondi": [196.0], "includesElement__atomic_weight_uncertainty": [0.01], "formula": ["Tl1Yb1"], "spacegroup": ["221"], "thermalConductivity": [0.857055], "icsd": ["106197"], "band_gap": [0.0], "density": [10.89828], "density_atomic": [28.75343], "deprecated": [false], "efermi": [4.387661], "homogeneous_poisson": [0.193], "is_gap_direct": [false], "is_magnetic": [false], "is_metal": [true], "is_stable": [false], "nelements": [2], "nsites": [2], "num_magnetic_sites": [0], "num_unique_magnetic_sites": [0], "theoretical": [false], "total_magnetization": [0.0013793], "total_magnetization_normalized_formula_units": [0.0013793], "total_magnetization_normalized_vol": [2.398496e-05], "universal_anisotropy": [0.371], "volume": [57.50687]}