{"includesElement": ["Ni", "Sb", "Gd"], "includesElement___series_id": [8, 5, 9], "includesElement__abundance_crust": [84.0, 0.2, 6.2], "includesElement__atomic_number": [28, 51, 64], "includesElement__atomic_radius": [135.0, 145.0, 180.0], "includesElement__atomic_radius_rahm": [229.0, 246.0, 277.0], "includesElement__atomic_volume": [6.6, 18.4, 19.9], "includesElement__atomic_weight": [58.6934, 121.76, 157.25], "includesElement__covalent_radius_cordero": [124.0, 139.0, 196.0], "includesElement__covalent_radius_pyykko": [110.0, 140.0, 169.0], "includesElement__covalent_radius_pyykko_double": [101.0, 133.0, 135.0], "includesElement__covalent_radius_pyykko_triple": [101.0, 127.0, 132.0], "includesElement__density": [8.9, 6.68, 7.9], "includesElement__dipole_polarizability": [49.0, 43.0, 158.0], "includesElement__dipole_polarizability_unc": [3.0, 2.0, 20.0], "includesElement__discovery_year": [1751, 1880], "includesElement__electron_affinity": [1.156, 1.046], "includesElement__electronegativity_allred-rochow": [0.0003347107, 0.0003214286, 0.0001050383], "includesElement__electronegativity_cottrell-sutton": [0.1918806, 0.212132, 0.1332347], "includesElement__electronegativity_ghosh": [0.1472068, 0.1918774, 0.1944], "includesElement__electronegativity_gordy": [0.03681818, 0.045, 0.01775148], "includesElement__electronegativity_mulliken": [4.397939, 4.827195, 3.074898], "includesElement__electronegativity_nagle": [0.588755, 0.4880907, 0.3985177], "includesElement__electronegativity_pauling": [1.91, 2.05, 1.2], "includesElement__electronegativity_sanderson": [0.937704, 0.7762722, 0.503386], "includesElement__en_ghosh": [0.1472068, 0.1918774, 0.1944], "includesElement__en_pauling": [1.91, 2.05, 1.2], "includesElement__evaporation_heat": [378.6, 195.2, 398.0], "includesElement__fusion_heat": [17.61, 20.08], "includesElement__glawe_number": [69, 91, 26], "includesElement__group_id": [10, 15], "includesElement__heat_of_formation": [430.1, 264.4, 397.5], "includesElement__is_radioactive": [false], "includesElement__lattice_constant": [3.52, 4.51, 3.64], "includesElement__mendeleev_number": [67, 96, 27], "includesElement__molar_heat_capacity": [26.07, 25.23, 37.03], "includesElement__period": [4, 5, 6], "includesElement__pettifor_number": [67, 88, 27], "includesElement__specific_heat_capacity": [0.444, 0.207, 0.236], "includesElement__vdw_radius": [197.0, 206.0, 234.0], "includesElement__vdw_radius_alvarez": [240.0, 247.0, 283.0], "includesElement__vdw_radius_mm3": [222.0, 252.0, 271.0], "includesElement__vdw_radius_uff": [283.4, 442.0, 336.8], "includesElement__abundance_sea": [0.00056, 0.00024, 7e-07], "includesElement__atomic_weight_uncertainty": [0.0004, 0.001, 0.03], "includesElement__c6_gb": [393.0, 504.0, 2340.0], "includesElement__covalent_radius_bragg": [135.0, 140.0], "includesElement__electronegativity_allen": [11.13, 11.74], "includesElement__en_allen": [11.13, 11.74], "includesElement__metallic_radius": [115.0, 139.0], "includesElement__metallic_radius_c12": [124.0, 166.0], "includesElement__thermal_conductivity": [90.9, 24.43], "includesElement__vdw_radius_batsanov": [200.0, 220.0], "includesElement__c6": [373.0, 492.0], "includesElement__gas_basicity": [714.1], "includesElement__proton_affinity": [737.0], "includesElement__vdw_radius_dreiding": [435.0], "includesElement__vdw_radius_truhlar": [206.0], "formula": ["GdNiSb"], "mp_id": ["569197"], "thermalConductivity": [8.38], "band_gap": [0.0], "density": [8.659696], "density_atomic": [21.58543], "deprecated": [false], "efermi": [5.624233], "energy_above_hull": [0.0], "energy_per_atom": [-8.947133], "formation_energy_per_atom": [-0.9520464], "homogeneous_poisson": [-1.0], "is_gap_direct": [false], "is_magnetic": [true], "is_metal": [true], "is_stable": [true], "nelements": [3], "nsites": [3], "num_magnetic_sites": [2], "num_unique_magnetic_sites": [2], "theoretical": [false], "total_magnetization": [7.0], "total_magnetization_normalized_formula_units": [7.0], "total_magnetization_normalized_vol": [0.1080976], "uncorrected_energy_per_atom": [-27.96684], "universal_anisotropy": [-1.611467e+32], "volume": [64.75628], "equilibrium_reaction_energy_per_atom": [-0.1070949]}