{"includesElement": ["", "Ba", "S", "Ti"], "includesElement___series_id": [4, 1, 8], "includesElement__abundance_crust": [425.0, 350.0, 5650.0], "includesElement__atomic_number": [56, 16, 22], "includesElement__atomic_radius": [215.0, 100.0, 140.0], "includesElement__atomic_radius_rahm": [293.0, 214.0, 257.0], "includesElement__atomic_volume": [39.0, 15.5, 10.6], "includesElement__atomic_weight": [137.327, 32.06, 47.867], "includesElement__covalent_radius_cordero": [215.0, 105.0, 160.0], "includesElement__covalent_radius_pyykko": [196.0, 103.0, 136.0], "includesElement__covalent_radius_pyykko_double": [161.0, 94.0, 117.0], "includesElement__covalent_radius_pyykko_triple": [149.0, 95.0, 108.0], "includesElement__density": [3.62, 2.07, 4.506], "includesElement__dipole_polarizability": [272.0, 19.4, 100.0], "includesElement__dipole_polarizability_unc": [10.0, 0.1], "includesElement__discovery_year": [1808, 1791], "includesElement__electron_affinity": [0.14462, 2.077104, 0.079], "includesElement__electronegativity_allred-rochow": [7.418784e-05, 0.0005137148, 0.0001703071], "includesElement__electronegativity_cottrell-sutton": [0.1205853, 0.2300274, 0.1521899], "includesElement__electronegativity_ghosh": [0.1586786, 0.23596, 0.1233637], "includesElement__electronegativity_gordy": [0.01454082, 0.05291262, 0.02316176], "includesElement__electronegativity_mulliken": [2.678142, 6.218557, 3.45356], "includesElement__electronegativity_nagle": [0.1944556, 0.6762644, 0.3419952], "includesElement__electronegativity_pauling": [0.89, 2.58, 1.54], "includesElement__electronegativity_sanderson": [0.3032951, 0.6397251, 0.4055462], "includesElement__en_ghosh": [0.1586786, 0.23596, 0.1233637], "includesElement__en_pauling": [0.89, 2.58, 1.54], "includesElement__evaporation_heat": [142.0, 10.5, 422.6], "includesElement__fusion_heat": [7.66, 1.23, 18.8], "includesElement__glawe_number": [14, 96, 51], "includesElement__group_id": [2, 16, 4], "includesElement__heat_of_formation": [179.1, 277.17, 473.0], "includesElement__is_radioactive": [false], "includesElement__lattice_constant": [5.02, 10.47, 2.95], "includesElement__mendeleev_number": [9, 100, 43], "includesElement__molar_heat_capacity": [28.07, 22.7, 25.06], "includesElement__period": [6, 3, 4], "includesElement__pettifor_number": [14, 94, 51], "includesElement__specific_heat_capacity": [0.204, 0.708, 0.523], "includesElement__vdw_radius": [268.0, 180.0, 211.0], "includesElement__vdw_radius_alvarez": [303.0, 189.0, 246.0], "includesElement__vdw_radius_mm3": [307.0, 215.0, 239.0], "includesElement__vdw_radius_uff": [370.3, 403.5, 317.5], "includesElement__abundance_sea": [0.013, 905.0, 0.001], "includesElement__atomic_weight_uncertainty": [0.007, 0.001], "includesElement__c6_gb": [5540.0, 140.0, 1200.0], "includesElement__covalent_radius_bragg": [210.0, 102.0, 140.0], "includesElement__electronegativity_allen": [5.211, 15.31, 8.17], "includesElement__en_allen": [5.211, 15.31, 8.17], "includesElement__metallic_radius": [198.0, 104.0, 132.0], "includesElement__metallic_radius_c12": [222.0, 127.0, 147.0], "includesElement__vdw_radius_batsanov": [270.0, 180.0, 215.0], "includesElement__vdw_radius_truhlar": [268.0], "includesElement__thermal_conductivity": [0.27, 21.9], "includesElement__c6": [134.0, 1044.0], "includesElement__vdw_radius_dreiding": [403.0], "includesElement__gas_basicity": [640.2, 853.7], "includesElement__proton_affinity": [664.3, 876.0], "includesElement__vdw_radius_bondi": [180.0], "includesElement__vdw_radius_rt": [181.0], "formula": ["Ba6S10Ti2"], "spacegroup": ["140"], "thermalConductivity": [1.90489], "icsd": ["203087"], "band_gap": [1.4489], "density": [4.057618], "density_atomic": [28.19995], "deprecated": [false], "efermi": [2.662841], "energy_above_hull": [0.003371592], "energy_per_atom": [-5.962514], "formation_energy_per_atom": [-2.14649], "is_gap_direct": [true], "is_magnetic": [false], "is_metal": [false], "is_stable": [false], "nelements": [3], "nsites": [18], "num_magnetic_sites": [0], "num_unique_magnetic_sites": [0], "theoretical": [false], "total_magnetization": [0.0], "total_magnetization_normalized_formula_units": [0.0], "total_magnetization_normalized_vol": [0.0], "uncorrected_energy_per_atom": [-16.85881], "volume": [507.599], "cbm": [4.0507], "vbm": [2.6018]}