{"includesElement": ["", "Ca", "Ir"], "includesElement___series_id": [4, 8], "includesElement__abundance_crust": [41500.0, 0.001], "includesElement__atomic_number": [20, 77], "includesElement__atomic_radius": [180.0, 135.0], "includesElement__atomic_radius_rahm": [270.0, 240.0], "includesElement__atomic_volume": [29.9, 8.54], "includesElement__atomic_weight": [40.078, 192.217], "includesElement__covalent_radius_cordero": [176.0, 141.0], "includesElement__covalent_radius_pyykko": [171.0, 122.0], "includesElement__covalent_radius_pyykko_double": [147.0, 115.0], "includesElement__covalent_radius_pyykko_triple": [133.0, 107.0], "includesElement__density": [1.54, 22.5622], "includesElement__dipole_polarizability": [160.8, 54.0], "includesElement__dipole_polarizability_unc": [4.0, 7.0], "includesElement__discovery_year": [1808, 1804], "includesElement__electron_affinity": [0.02455, 1.5638], "includesElement__electronegativity_allred-rochow": [9.746589e-05, 0.0002620263], "includesElement__electronegativity_cottrell-sutton": [0.1290994, 0.1787938], "includesElement__electronegativity_ghosh": [0.1154119, 0.25106], "includesElement__electronegativity_gordy": [0.01666667, 0.03196721], "includesElement__electronegativity_mulliken": [3.068853, 5.26541], "includesElement__electronegativity_nagle": [0.2316939, 0.5503212], "includesElement__electronegativity_pauling": [1.0, 2.2], "includesElement__electronegativity_sanderson": [0.1901577, 1.475998], "includesElement__en_ghosh": [0.1154119, 0.25106], "includesElement__en_pauling": [1.0, 2.2], "includesElement__evaporation_heat": [153.6, 604.0], "includesElement__fusion_heat": [9.2, 27.61], "includesElement__glawe_number": [16, 62], "includesElement__group_id": [2, 9], "includesElement__heat_of_formation": [177.8, 669.0], "includesElement__is_radioactive": [false], "includesElement__lattice_constant": [5.58, 3.84], "includesElement__mendeleev_number": [7, 65], "includesElement__molar_heat_capacity": [25.929, 25.1], "includesElement__period": [4, 6], "includesElement__pettifor_number": [16, 65], "includesElement__specific_heat_capacity": [0.647, 0.131], "includesElement__vdw_radius": [231.0, 213.0], "includesElement__vdw_radius_alvarez": [262.0, 241.0], "includesElement__vdw_radius_mm3": [281.0, 236.0], "includesElement__vdw_radius_uff": [339.9, 284.0], "includesElement__abundance_sea": [412.0], "includesElement__atomic_weight_uncertainty": [0.004, 0.003], "includesElement__c6_gb": [2230.0, 522.0], "includesElement__covalent_radius_bragg": [170.0], "includesElement__electronegativity_allen": [6.113, 9.96], "includesElement__en_allen": [6.113, 9.96], "includesElement__metallic_radius": [174.0, 127.0], "includesElement__metallic_radius_c12": [197.0, 136.0], "includesElement__vdw_radius_batsanov": [240.0, 200.0], "includesElement__c6": [2163.0], "includesElement__vdw_radius_truhlar": [231.0], "includesElement__thermal_conductivity": [147.0], "formula": ["Ca2Ir4"], "spacegroup": ["227"], "thermalConductivity": [5.36014], "icsd": ["108146"], "band_gap": [0.0], "density": [13.14362], "density_atomic": [17.87734], "deprecated": [false], "efermi": [6.249848], "energy_above_hull": [0.0], "energy_per_atom": [-37.787], "formation_energy_per_atom": [-0.5346709], "homogeneous_poisson": [0.25], "is_gap_direct": [false], "is_magnetic": [false], "is_metal": [true], "is_stable": [true], "nelements": [2], "nsites": [6], "num_magnetic_sites": [0], "num_unique_magnetic_sites": [0], "theoretical": [false], "total_magnetization": [0.0010681], "total_magnetization_normalized_formula_units": [0.00053405], "total_magnetization_normalized_vol": [9.95767e-06], "uncorrected_energy_per_atom": [-37.787], "universal_anisotropy": [66495.09], "volume": [107.2641], "equilibrium_reaction_energy_per_atom": [-0.4397961]}