{"includesElement": ["", "Na", "K", "Te"], "includesElement___series_id": [3, 5], "includesElement__abundance_crust": [23600.0, 20900.0, 0.001], "includesElement__atomic_number": [11, 19, 52], "includesElement__atomic_radius": [180.0, 220.0, 140.0], "includesElement__atomic_radius_rahm": [225.0, 234.0, 242.0], "includesElement__atomic_volume": [23.7, 45.3, 20.5], "includesElement__atomic_weight": [22.98977, 39.0983, 127.6], "includesElement__covalent_radius_cordero": [166.0, 203.0, 138.0], "includesElement__covalent_radius_pyykko": [155.0, 196.0, 136.0], "includesElement__covalent_radius_pyykko_double": [160.0, 193.0, 128.0], "includesElement__density": [0.97, 0.89, 6.232], "includesElement__dipole_polarizability": [162.7, 289.7, 38.0], "includesElement__dipole_polarizability_unc": [0.5, 0.3, 4.0], "includesElement__discovery_year": [1807, 1782], "includesElement__electron_affinity": [0.547926, 0.50147, 1.970876], "includesElement__electronegativity_allred-rochow": [9.157128e-05, 5.726781e-05, 0.0003757569], "includesElement__electronegativity_cottrell-sutton": [0.1191367, 0.1059457, 0.2260596], "includesElement__electronegativity_ghosh": [0.093214, 0.0981896, 0.2056992], "includesElement__electronegativity_gordy": [0.01419355, 0.01122449, 0.05110294], "includesElement__electronegativity_mulliken": [2.843501, 2.421067, 5.490268], "includesElement__electronegativity_nagle": [0.1831769, 0.1511299, 0.5404919], "includesElement__electronegativity_pauling": [0.93, 0.82, 2.1], "includesElement__electronegativity_sanderson": [0.09459764, 0.1218383, 0.8622506], "includesElement__en_ghosh": [0.093214, 0.0981896, 0.2056992], "includesElement__en_pauling": [0.93, 0.82, 2.1], "includesElement__evaporation_heat": [97.9, 2.33, 49.8], "includesElement__fusion_heat": [2.64, 102.5, 17.91], "includesElement__glawe_number": [11, 10, 94], "includesElement__group_id": [1, 16], "includesElement__heat_of_formation": [107.5, 89.0, 196.6], "includesElement__is_radioactive": [false], "includesElement__lattice_constant": [4.23, 5.23, 4.45], "includesElement__mendeleev_number": [2, 3, 102], "includesElement__molar_heat_capacity": [28.23, 29.6, 25.73], "includesElement__period": [3, 4, 5], "includesElement__pettifor_number": [11, 10, 92], "includesElement__specific_heat_capacity": [1.228, 0.757, 0.202], "includesElement__vdw_radius": [227.0, 275.0, 206.0], "includesElement__vdw_radius_alvarez": [250.0, 273.0, 199.0], "includesElement__vdw_radius_mm3": [270.0, 309.0, 244.0], "includesElement__vdw_radius_uff": [298.3, 381.2, 447.0], "includesElement__abundance_sea": [10800.0, 399.0], "includesElement__atomic_weight_uncertainty": [2e-08, 0.0001, 0.03], "includesElement__c6_gb": [1570.0, 3910.0, 471.0], "includesElement__covalent_radius_bragg": [177.0, 207.0, 133.0], "includesElement__electronegativity_allen": [5.14, 4.34, 12.76], "includesElement__en_allen": [5.14, 4.34, 12.76], "includesElement__metallic_radius": [157.0, 203.0, 137.0], "includesElement__metallic_radius_c12": [190.0, 235.0, 160.0], "includesElement__thermal_conductivity": [142.0, 79.0, 14.3], "includesElement__vdw_radius_batsanov": [240.0, 280.0, 210.0], "includesElement__c6": [1518.0, 3923.0, 445.0], "includesElement__is_monoisotopic": [true], "includesElement__vdw_radius_bondi": [227.0, 275.0, 206.0], "includesElement__covalent_radius_pyykko_triple": [121.0], "includesElement__vdw_radius_dreiding": [423.0], "formula": ["K4Na4Te4"], "spacegroup": ["62"], "thermalConductivity": [0.593697], "icsd": ["67276"], "band_gap": [1.9491], "density": [3.085919], "density_atomic": [34.02384], "deprecated": [false], "efermi": [1.035975], "energy_above_hull": [0.0], "energy_per_atom": [-12.87982], "formation_energy_per_atom": [-1.213264], "is_gap_direct": [true], "is_magnetic": [false], "is_metal": [false], "is_stable": [true], "nelements": [3], "nsites": [12], "num_magnetic_sites": [0], "num_unique_magnetic_sites": [0], "theoretical": [false], "total_magnetization": [0.0], "total_magnetization_normalized_formula_units": [0.0], "total_magnetization_normalized_vol": [0.0], "uncorrected_energy_per_atom": [-12.87982], "volume": [408.2861], "cbm": [2.9548], "e_electronic": [4.434883], "e_ionic": [4.97075], "e_total": [9.405633], "equilibrium_reaction_energy_per_atom": [-0.03836061], "n": [2.105916], "vbm": [1.0057]}