{"includesElement": ["", "Ba", "Zn", "N"], "includesElement___series_id": [4, 8, 1], "includesElement__abundance_crust": [425.0, 70.0, 19.0], "includesElement__atomic_number": [56, 30, 7], "includesElement__atomic_radius": [215.0, 135.0, 65.0], "includesElement__atomic_radius_rahm": [293.0, 222.0, 179.0], "includesElement__atomic_volume": [39.0, 9.2, 17.3], "includesElement__atomic_weight": [137.327, 65.38, 14.007], "includesElement__covalent_radius_cordero": [215.0, 122.0, 71.0], "includesElement__covalent_radius_pyykko": [196.0, 118.0, 71.0], "includesElement__covalent_radius_pyykko_double": [161.0, 120.0, 60.0], "includesElement__covalent_radius_pyykko_triple": [149.0, 54.0], "includesElement__density": [3.62, 7.134, 0.001145], "includesElement__dipole_polarizability": [272.0, 38.67, 7.4], "includesElement__dipole_polarizability_unc": [10.0, 0.3, 0.2], "includesElement__discovery_year": [1808, 1772], "includesElement__electron_affinity": [0.14462, -1.4], "includesElement__electronegativity_allred-rochow": [7.418784e-05, 0.0003124102, 0.000773656], "includesElement__electronegativity_cottrell-sutton": [0.1205853, 0.1920011, 0.2343706], "includesElement__electronegativity_ghosh": [0.1586786, 0.1551518, 0.26493], "includesElement__electronegativity_gordy": [0.01454082, 0.03686441, 0.05492958], "includesElement__electronegativity_mulliken": [2.678142, 4.6971, 6.567065], "includesElement__electronegativity_nagle": [0.1944556, 0.6770213, 0.8774979], "includesElement__electronegativity_pauling": [0.89, 1.65, 3.04], "includesElement__electronegativity_sanderson": [0.3032951, 0.8100877, 0.577482], "includesElement__en_ghosh": [0.1586786, 0.1551518, 0.26493], "includesElement__en_pauling": [0.89, 1.65, 3.04], "includesElement__evaporation_heat": [142.0, 114.8], "includesElement__fusion_heat": [7.66, 7.28], "includesElement__glawe_number": [14, 74, 88], "includesElement__group_id": [2, 12, 15], "includesElement__heat_of_formation": [179.1, 130.4, 472.44], "includesElement__is_radioactive": [false], "includesElement__lattice_constant": [5.02, 2.66, 4.039], "includesElement__mendeleev_number": [9, 77, 93], "includesElement__molar_heat_capacity": [28.07, 25.39, 29.124], "includesElement__period": [6, 4, 2], "includesElement__pettifor_number": [14, 76, 100], "includesElement__specific_heat_capacity": [0.204, 0.388, 1.04], "includesElement__vdw_radius": [268.0, 201.0, 155.0], "includesElement__vdw_radius_alvarez": [303.0, 239.0, 166.0], "includesElement__vdw_radius_mm3": [307.0, 229.0, 193.0], "includesElement__vdw_radius_uff": [370.3, 276.3, 366.0], "includesElement__abundance_sea": [0.013, 0.0049, 0.5], "includesElement__atomic_weight_uncertainty": [0.007, 0.02], "includesElement__c6_gb": [5540.0, 276.0, 25.7], "includesElement__covalent_radius_bragg": [210.0, 132.0, 65.0], "includesElement__electronegativity_allen": [5.211, 9.395, 18.13], "includesElement__en_allen": [5.211, 9.395, 18.13], "includesElement__metallic_radius": [198.0, 121.0], "includesElement__metallic_radius_c12": [222.0, 134.0, 53.0], "includesElement__vdw_radius_batsanov": [270.0, 210.0, 160.0], "includesElement__vdw_radius_truhlar": [268.0], "includesElement__thermal_conductivity": [116.0, 0.026], "includesElement__c6": [284.0, 24.2], "includesElement__gas_basicity": [586.0, 318.7], "includesElement__proton_affinity": [608.6, 342.2], "includesElement__vdw_radius_dreiding": [366.21], "includesElement__vdw_radius_bondi": [155.0], "includesElement__vdw_radius_rt": [164.0], "formula": ["Ba2N2Zn1"], "spacegroup": ["139"], "thermalConductivity": [2.92311], "icsd": ["80377"], "band_gap": [0.4771], "density": [5.345537], "density_atomic": [22.86787], "deprecated": [false], "efermi": [2.402896], "energy_above_hull": [0.0], "energy_per_atom": [-4.922035], "formation_energy_per_atom": [-0.5671855], "homogeneous_poisson": [0.307], "is_gap_direct": [false], "is_magnetic": [false], "is_metal": [false], "is_stable": [true], "nelements": [3], "nsites": [5], "num_magnetic_sites": [0], "num_unique_magnetic_sites": [0], "theoretical": [false], "total_magnetization": [0.0], "total_magnetization_normalized_formula_units": [0.0], "total_magnetization_normalized_vol": [0.0], "uncorrected_energy_per_atom": [-16.59425], "universal_anisotropy": [0.938], "volume": [114.3394], "cbm": [2.7652], "e_electronic": [7.385162], "e_ionic": [25.78462], "e_total": [33.16978], "equilibrium_reaction_energy_per_atom": [-0.015412], "n": [2.717565], "vbm": [2.2881]}