{"includesElement": ["", "Mg", "N", "Mo"], "includesElement___series_id": [4, 1, 8], "includesElement__abundance_crust": [23300.0, 19.0, 1.2], "includesElement__atomic_number": [12, 7, 42], "includesElement__atomic_radius": [150.0, 65.0, 145.0], "includesElement__atomic_radius_rahm": [240.0, 179.0, 244.0], "includesElement__atomic_volume": [14.0, 17.3, 9.4], "includesElement__atomic_weight": [24.305, 14.007, 95.95], "includesElement__covalent_radius_cordero": [141.0, 71.0, 154.0], "includesElement__covalent_radius_pyykko": [139.0, 71.0, 138.0], "includesElement__covalent_radius_pyykko_double": [132.0, 60.0, 121.0], "includesElement__covalent_radius_pyykko_triple": [127.0, 54.0, 113.0], "includesElement__density": [1.74, 0.001145, 10.2], "includesElement__dipole_polarizability": [71.2, 7.4, 87.0], "includesElement__dipole_polarizability_unc": [0.4, 0.2, 6.0], "includesElement__discovery_year": [1808, 1772, 1778], "includesElement__electronegativity_allred-rochow": [0.0001475079, 0.000773656, 0.0001549044], "includesElement__electronegativity_cottrell-sutton": [0.1431908, 0.2343706, 0.1462081], "includesElement__electronegativity_ghosh": [0.121644, 0.26493, 0.1312672], "includesElement__electronegativity_gordy": [0.0205036, 0.05492958, 0.02137681], "includesElement__electronegativity_mulliken": [3.823117, 6.567065, 3.920215], "includesElement__electronegativity_nagle": [0.3039835, 0.8774979, 0.4100883], "includesElement__electronegativity_pauling": [1.31, 3.04, 2.16], "includesElement__electronegativity_sanderson": [0.1524211, 0.577482, 0.685295], "includesElement__en_ghosh": [0.121644, 0.26493, 0.1312672], "includesElement__en_pauling": [1.31, 3.04, 2.16], "includesElement__evaporation_heat": [131.8, 590.0], "includesElement__fusion_heat": [9.2, 28.0], "includesElement__glawe_number": [73, 88, 56], "includesElement__group_id": [2, 15, 6], "includesElement__heat_of_formation": [147.1, 472.44, 658.98], "includesElement__is_radioactive": [false], "includesElement__lattice_constant": [3.21, 4.039, 3.15], "includesElement__mendeleev_number": [76, 93, 52], "includesElement__molar_heat_capacity": [24.869, 29.124, 24.06], "includesElement__period": [3, 2, 5], "includesElement__pettifor_number": [73, 100, 55], "includesElement__specific_heat_capacity": [1.023, 1.04, 0.251], "includesElement__vdw_radius": [173.0, 155.0, 217.0], "includesElement__vdw_radius_alvarez": [251.0, 166.0, 245.0], "includesElement__vdw_radius_mm3": [243.0, 193.0, 239.0], "includesElement__vdw_radius_uff": [302.1, 366.0, 305.2], "includesElement__abundance_sea": [1290.0, 0.5, 0.01], "includesElement__c6_gb": [629.0, 25.7, 1030.0], "includesElement__covalent_radius_bragg": [142.0, 65.0], "includesElement__electronegativity_allen": [7.646, 18.13, 8.71], "includesElement__en_allen": [7.646, 18.13, 8.71], "includesElement__metallic_radius": [136.0, 130.0], "includesElement__metallic_radius_c12": [160.0, 53.0, 139.0], "includesElement__thermal_conductivity": [156.0, 0.026], "includesElement__vdw_radius_batsanov": [220.0, 160.0, 210.0], "includesElement__c6": [626.0, 24.2], "includesElement__gas_basicity": [797.3, 318.7], "includesElement__proton_affinity": [819.6, 342.2], "includesElement__vdw_radius_bondi": [173.0, 155.0], "includesElement__electron_affinity": [-1.4, 0.748], "includesElement__vdw_radius_dreiding": [366.21], "includesElement__vdw_radius_rt": [164.0], "includesElement__atomic_weight_uncertainty": [0.01], "formula": ["Mg2Mo2N4"], "spacegroup": ["194"], "thermalConductivity": [27.7483], "icsd": ["185913"], "band_gap": [0.7411], "density": [6.374763], "density_atomic": [9.654824], "deprecated": [false], "efermi": [8.860641], "energy_above_hull": [0.0], "energy_per_atom": [-8.326915], "formation_energy_per_atom": [-1.038746], "homogeneous_poisson": [0.202], "is_gap_direct": [false], "is_magnetic": [false], "is_metal": [false], "is_stable": [true], "nelements": [3], "nsites": [8], "num_magnetic_sites": [0], "num_unique_magnetic_sites": [0], "theoretical": [false], "total_magnetization": [0.0], "total_magnetization_normalized_formula_units": [0.0], "total_magnetization_normalized_vol": [0.0], "uncorrected_energy_per_atom": [-13.21733], "universal_anisotropy": [0.075], "volume": [77.23859], "cbm": [9.5279], "e_electronic": [11.79397], "e_ionic": [4.245717], "e_total": [16.03969], "equilibrium_reaction_energy_per_atom": [-0.2085489], "n": [3.434235], "vbm": [8.7868]}