{"includesElement": ["", "Cs", "Au"], "includesElement___series_id": [3, 8], "includesElement__abundance_crust": [3.0, 0.004], "includesElement__atomic_number": [55, 79], "includesElement__atomic_radius": [260.0, 135.0], "includesElement__atomic_radius_rahm": [249.0, 226.0], "includesElement__atomic_volume": [70.0, 10.2], "includesElement__atomic_weight": [132.9055, 196.9666], "includesElement__covalent_radius_cordero": [244.0, 136.0], "includesElement__covalent_radius_pyykko": [232.0, 124.0], "includesElement__covalent_radius_pyykko_double": [209.0, 121.0], "includesElement__density": [1.873, 19.3], "includesElement__dipole_polarizability": [400.9, 36.0], "includesElement__dipole_polarizability_unc": [0.7, 3.0], "includesElement__discovery_year": [1860], "includesElement__electron_affinity": [0.471626, 2.30863], "includesElement__electronegativity_allred-rochow": [4.087396e-05, 0.0002406348], "includesElement__electronegativity_cottrell-sutton": [0.09737946, 0.1727388], "includesElement__electronegativity_ghosh": [0.1542125, 0.26137], "includesElement__electronegativity_gordy": [0.009482759, 0.02983871], "includesElement__electronegativity_mulliken": [2.182766, 5.767091], "includesElement__electronegativity_nagle": [0.1356192, 0.67354], "includesElement__electronegativity_pauling": [0.79, 2.4], "includesElement__electronegativity_sanderson": [0.1814531, 1.426701], "includesElement__en_ghosh": [0.1542125, 0.26137], "includesElement__en_pauling": [0.79, 2.4], "includesElement__evaporation_heat": [68.3, 340.0], "includesElement__fusion_heat": [2.09, 12.68], "includesElement__glawe_number": [8, 66], "includesElement__group_id": [1, 11], "includesElement__heat_of_formation": [76.5, 368.2], "includesElement__is_radioactive": [false], "includesElement__lattice_constant": [6.05, 4.08], "includesElement__mendeleev_number": [5, 73], "includesElement__molar_heat_capacity": [32.21, 25.418], "includesElement__period": [6], "includesElement__pettifor_number": [8, 70], "includesElement__specific_heat_capacity": [0.242, 0.129], "includesElement__vdw_radius": [343.0, 214.0], "includesElement__vdw_radius_alvarez": [348.0, 232.0], "includesElement__vdw_radius_mm3": [344.0, 243.0], "includesElement__vdw_radius_uff": [451.7, 329.3], "includesElement__abundance_sea": [0.0003, 4e-06], "includesElement__atomic_weight_uncertainty": [6e-08, 5e-06], "includesElement__c6_gb": [6660.0, 427.0], "includesElement__covalent_radius_bragg": [237.0], "includesElement__electronegativity_allen": [3.898, 11.33], "includesElement__en_allen": [3.898, 11.33], "includesElement__metallic_radius": [235.0, 134.0], "includesElement__metallic_radius_c12": [267.0, 144.0], "includesElement__thermal_conductivity": [35.9, 318.0], "includesElement__vdw_radius_batsanov": [300.0, 210.0], "includesElement__is_monoisotopic": [true], "includesElement__vdw_radius_truhlar": [343.0], "includesElement__covalent_radius_pyykko_triple": [123.0], "formula": ["Au1Cs1"], "spacegroup": ["221"], "thermalConductivity": [0.500054], "icsd": ["150971"], "band_gap": [1.0233], "density": [6.972599], "density_atomic": [39.27986], "deprecated": [false], "efermi": [1.122571], "energy_above_hull": [0.0], "energy_per_atom": [-38.20727], "formation_energy_per_atom": [-0.3651831], "homogeneous_poisson": [0.247], "is_gap_direct": [false], "is_magnetic": [false], "is_metal": [false], "is_stable": [true], "nelements": [2], "nsites": [2], "num_magnetic_sites": [0], "num_unique_magnetic_sites": [0], "theoretical": [false], "total_magnetization": [0.0], "total_magnetization_normalized_formula_units": [0.0], "total_magnetization_normalized_vol": [0.0], "uncorrected_energy_per_atom": [-38.20727], "universal_anisotropy": [0.009], "volume": [78.55972], "cbm": [1.9201], "e_electronic": [4.990526], "e_ionic": [5.214699], "e_total": [10.20523], "equilibrium_reaction_energy_per_atom": [-0.3651831], "n": [2.233949], "vbm": [0.8968]}