{"includesElement": ["", "K", "I"], "includesElement___series_id": [3, 6], "includesElement__abundance_crust": [20900.0, 0.45], "includesElement__atomic_number": [19, 53], "includesElement__atomic_radius": [220.0, 140.0], "includesElement__atomic_radius_rahm": [234.0, 238.0], "includesElement__atomic_volume": [45.3, 25.7], "includesElement__atomic_weight": [39.0983, 126.9045], "includesElement__covalent_radius_cordero": [203.0, 139.0], "includesElement__covalent_radius_pyykko": [196.0, 133.0], "includesElement__covalent_radius_pyykko_double": [193.0, 129.0], "includesElement__density": [0.89, 4.933], "includesElement__dipole_polarizability": [289.7, 32.9], "includesElement__dipole_polarizability_unc": [0.3, 1.3], "includesElement__discovery_year": [1807, 1811], "includesElement__electron_affinity": [0.50147, 3.059037], "includesElement__electronegativity_allred-rochow": [5.726781e-05, 0.0004296455], "includesElement__electronegativity_cottrell-sutton": [0.1059457, 0.2390457], "includesElement__electronegativity_ghosh": [0.0981896, 0.2195176], "includesElement__electronegativity_gordy": [0.01122449, 0.05714286], "includesElement__electronegativity_mulliken": [2.421067, 6.755148], "includesElement__electronegativity_nagle": [0.1511299, 0.5969904], "includesElement__electronegativity_pauling": [0.82, 2.66], "includesElement__electronegativity_sanderson": [0.1218383, 0.9386429], "includesElement__en_ghosh": [0.0981896, 0.2195176], "includesElement__en_pauling": [0.82, 2.66], "includesElement__evaporation_heat": [2.33, 41.95], "includesElement__fusion_heat": [102.5, 15.52], "includesElement__glawe_number": [10, 99], "includesElement__group_id": [1, 17], "includesElement__heat_of_formation": [89.0, 106.757], "includesElement__is_radioactive": [false], "includesElement__lattice_constant": [5.23, 7.72], "includesElement__mendeleev_number": [3, 109], "includesElement__molar_heat_capacity": [29.6, 54.43], "includesElement__period": [4, 5], "includesElement__pettifor_number": [10, 97], "includesElement__specific_heat_capacity": [0.757, 0.214], "includesElement__vdw_radius": [275.0, 198.0], "includesElement__vdw_radius_alvarez": [273.0, 204.0], "includesElement__vdw_radius_mm3": [309.0, 236.0], "includesElement__vdw_radius_uff": [381.2, 450.0], "includesElement__abundance_sea": [399.0, 0.06], "includesElement__atomic_weight_uncertainty": [0.0001, 3e-05], "includesElement__c6_gb": [3910.0, 389.0], "includesElement__covalent_radius_bragg": [207.0, 140.0], "includesElement__electronegativity_allen": [4.34, 13.95], "includesElement__en_allen": [4.34, 13.95], "includesElement__metallic_radius": [203.0], "includesElement__metallic_radius_c12": [235.0, 139.0], "includesElement__thermal_conductivity": [79.0], "includesElement__vdw_radius_batsanov": [280.0, 210.0], "includesElement__c6": [3923.0, 385.0], "includesElement__vdw_radius_bondi": [275.0, 198.0], "includesElement__covalent_radius_pyykko_triple": [125.0], "includesElement__is_monoisotopic": [true], "includesElement__vdw_radius_dreiding": [415.0], "includesElement__gas_basicity": [583.5], "includesElement__proton_affinity": [608.2], "includesElement__vdw_radius_rt": [203.0], "formula": ["I1K1", "IK"], "mp_id": ["mp-22898"], "spacegroup": ["225"], "thermalConductivity": [0.525554, 2.073878, 2.199906], "icsd": ["22158"], "band_gap": [3.8513], "density": [3.100477], "density_atomic": [44.45349], "deprecated": [false], "efermi": [-0.5067602], "energy_above_hull": [0.0], "energy_per_atom": [-2.99768], "formation_energy_per_atom": [-1.695312], "homogeneous_poisson": [0.273], "is_gap_direct": [true], "is_magnetic": [false], "is_metal": [false], "is_stable": [true], "nelements": [2], "nsites": [2], "num_magnetic_sites": [0], "num_unique_magnetic_sites": [0], "theoretical": [false], "total_magnetization": [0.0], "total_magnetization_normalized_formula_units": [0.0], "total_magnetization_normalized_vol": [0.0], "uncorrected_energy_per_atom": [-16.99297], "universal_anisotropy": [1.27], "volume": [88.90699], "cbm": [3.1833], "e_electronic": [3.11679], "e_ionic": [1.914244], "e_total": [5.031035], "equilibrium_reaction_energy_per_atom": [-1.695312], "n": [1.765443], "vbm": [-0.668]}