{"includesElement": ["", "F", "Kr"], "includesElement___series_id": [6, 2], "includesElement__abundance_crust": [585.0, 0.0001], "includesElement__atomic_number": [9, 36], "includesElement__atomic_radius": [50.0], "includesElement__atomic_radius_rahm": [163.0, 212.0], "includesElement__atomic_volume": [17.1, 32.2], "includesElement__atomic_weight": [18.9984, 83.798], "includesElement__covalent_radius_cordero": [57.0, 116.0], "includesElement__covalent_radius_pyykko": [64.0, 117.0], "includesElement__covalent_radius_pyykko_double": [59.0, 121.0], "includesElement__covalent_radius_pyykko_triple": [53.0, 108.0], "includesElement__density": [0.001553, 0.003425], "includesElement__dipole_polarizability": [3.74, 16.78], "includesElement__dipole_polarizability_unc": [0.08, 0.02], "includesElement__discovery_year": [1886, 1898], "includesElement__electron_affinity": [3.40119], "includesElement__electronegativity_allred-rochow": [0.001269531, 0.0006026737], "includesElement__electronegativity_cottrell-sutton": [0.2850439, 0.2655425], "includesElement__electronegativity_ghosh": [0.344443, 0.2584813], "includesElement__electronegativity_gordy": [0.08125, 0.07051282], "includesElement__electronegativity_mulliken": [10.412, 6.999802], "includesElement__electronegativity_nagle": [1.232373, 0.7812068], "includesElement__electronegativity_pauling": [3.98], "includesElement__electronegativity_sanderson": [1.017681, 1.0], "includesElement__en_ghosh": [0.344443, 0.2584813], "includesElement__en_pauling": [3.98], "includesElement__evaporation_heat": [6.54, 9.05], "includesElement__fusion_heat": [0.51], "includesElement__glawe_number": [102, 4], "includesElement__group_id": [17, 18], "includesElement__heat_of_formation": [79.335], "includesElement__is_radioactive": [false], "includesElement__mendeleev_number": [106, 115], "includesElement__molar_heat_capacity": [31.304, 20.786], "includesElement__period": [2, 4], "includesElement__pettifor_number": [102, 4], "includesElement__specific_heat_capacity": [0.824, 0.248], "includesElement__vdw_radius": [147.0, 202.0], "includesElement__vdw_radius_alvarez": [146.0, 207.0], "includesElement__vdw_radius_mm3": [171.0, 215.0], "includesElement__vdw_radius_uff": [336.4, 414.1], "includesElement__abundance_sea": [1.3, 0.00021], "includesElement__atomic_weight_uncertainty": [6e-09, 0.002], "includesElement__c6_gb": [10.2, 136.0], "includesElement__covalent_radius_bragg": [67.0], "includesElement__electronegativity_allen": [24.8, 17.54], "includesElement__en_allen": [24.8, 17.54], "includesElement__thermal_conductivity": [0.028, 0.0095], "includesElement__vdw_radius_batsanov": [150.0], "includesElement__c6": [9.52, 130.0], "includesElement__is_monoisotopic": [true], "includesElement__vdw_radius_dreiding": [347.2], "includesElement__gas_basicity": [315.1, 402.4], "includesElement__proton_affinity": [340.1, 424.6], "includesElement__vdw_radius_bondi": [147.0, 202.0], "includesElement__vdw_radius_rt": [146.0], "includesElement__lattice_constant": [5.72], "formula": ["F2Kr1"], "spacegroup": ["139"], "thermalConductivity": [2.37624], "icsd": ["279623"], "band_gap": [0.0], "density": [3.695849], "density_atomic": [18.24074], "deprecated": [false], "efermi": [-0.4718602], "energy_above_hull": [0.0], "energy_per_atom": [-6.288076], "formation_energy_per_atom": [-0.01081662], "is_gap_direct": [false], "is_magnetic": [false], "is_metal": [true], "is_stable": [true], "nelements": [2], "nsites": [3], "num_magnetic_sites": [0], "num_unique_magnetic_sites": [0], "theoretical": [false], "total_magnetization": [0.0], "total_magnetization_normalized_formula_units": [0.0], "total_magnetization_normalized_vol": [0.0], "uncorrected_energy_per_atom": [-6.288076], "volume": [54.72221], "equilibrium_reaction_energy_per_atom": [-0.01081662]}