{"includesElement": ["", "Sn", "Cu", "Rh"], "includesElement___series_id": [7, 8], "includesElement__abundance_crust": [2.3, 60.0, 0.001], "includesElement__atomic_number": [50, 29, 45], "includesElement__atomic_radius": [145.0, 135.0], "includesElement__atomic_radius_rahm": [248.0, 217.0, 233.0], "includesElement__atomic_volume": [16.3, 7.1, 8.3], "includesElement__atomic_weight": [118.71, 63.546, 102.9055], "includesElement__covalent_radius_cordero": [139.0, 132.0, 142.0], "includesElement__covalent_radius_pyykko": [140.0, 112.0, 125.0], "includesElement__covalent_radius_pyykko_double": [130.0, 115.0, 110.0], "includesElement__covalent_radius_pyykko_triple": [132.0, 120.0, 106.0], "includesElement__density": [7.287, 8.96, 12.4], "includesElement__dipole_polarizability": [53.0, 46.5, 66.0], "includesElement__dipole_polarizability_unc": [6.0, 0.5, 10.0], "includesElement__electron_affinity": [1.112067, 1.235, 1.137], "includesElement__electronegativity_allred-rochow": [0.0002882653, 0.0002949617, 0.0002176], "includesElement__electronegativity_cottrell-sutton": [0.2008909, 0.1817573, 0.1649242], "includesElement__electronegativity_ghosh": [0.178052, 0.1511716, 0.1408379], "includesElement__electronegativity_gordy": [0.04035714, 0.03303571, 0.0272], "includesElement__electronegativity_mulliken": [4.227992, 4.48069, 4.29795], "includesElement__electronegativity_nagle": [0.4225986, 0.6184623, 0.5147142], "includesElement__electronegativity_pauling": [1.96, 1.9, 2.28], "includesElement__electronegativity_sanderson": [0.7622797, 0.9175542, 0.9761915], "includesElement__en_ghosh": [0.178052, 0.1511716, 0.1408379], "includesElement__en_pauling": [1.96, 1.9, 2.28], "includesElement__evaporation_heat": [296.0, 304.6, 494.0], "includesElement__fusion_heat": [7.07, 13.01, 21.8], "includesElement__glawe_number": [83, 68, 63], "includesElement__group_id": [14, 11, 9], "includesElement__heat_of_formation": [301.2, 337.4, 556.0], "includesElement__is_radioactive": [false], "includesElement__lattice_constant": [5.82, 3.61, 3.8], "includesElement__mendeleev_number": [90, 71, 64], "includesElement__molar_heat_capacity": [26.99, 24.44, 24.98], "includesElement__period": [5, 4], "includesElement__pettifor_number": [83, 72, 66], "includesElement__specific_heat_capacity": [0.227, 0.385, 0.243], "includesElement__vdw_radius": [217.0, 196.0, 210.0], "includesElement__vdw_radius_alvarez": [242.0, 238.0, 244.0], "includesElement__vdw_radius_mm3": [259.0, 226.0, 234.0], "includesElement__vdw_radius_uff": [439.2, 349.5, 292.9], "includesElement__abundance_sea": [4e-06, 0.00025], "includesElement__atomic_weight_uncertainty": [0.007, 0.003, 2e-05], "includesElement__c6_gb": [715.0, 264.0, 708.0], "includesElement__covalent_radius_bragg": [140.0, 137.0], "includesElement__electronegativity_allen": [10.79, 10.96, 9.259], "includesElement__en_allen": [10.79, 10.96, 9.259], "includesElement__metallic_radius": [142.0, 118.0, 125.0], "includesElement__metallic_radius_c12": [163.0, 128.0, 134.0], "includesElement__thermal_conductivity": [66.8, 401.0, 150.0], "includesElement__vdw_radius_batsanov": [225.0, 200.0], "includesElement__c6": [659.0, 253.0], "includesElement__vdw_radius_dreiding": [447.0], "includesElement__vdw_radius_bondi": [217.0], "includesElement__gas_basicity": [632.4, 745.4], "includesElement__proton_affinity": [655.3, 768.0], "includesElement__discovery_year": [1803], "includesElement__is_monoisotopic": [true], "formula": ["Cu1Rh2Sn1"], "spacegroup": ["225"], "thermalConductivity": [4.86328], "icsd": ["103092"], "band_gap": [0.0], "density": [11.01818], "density_atomic": [14.6213], "deprecated": [false], "efermi": [8.237031], "energy_above_hull": [0.0], "energy_per_atom": [-6.057766], "formation_energy_per_atom": [-0.3484179], "homogeneous_poisson": [0.34], "is_gap_direct": [false], "is_magnetic": [false], "is_metal": [true], "is_stable": [true], "nelements": [3], "nsites": [4], "num_magnetic_sites": [0], "num_unique_magnetic_sites": [0], "theoretical": [false], "total_magnetization": [8.1e-06], "total_magnetization_normalized_formula_units": [8.1e-06], "total_magnetization_normalized_vol": [1.384966e-07], "uncorrected_energy_per_atom": [-21.32484], "universal_anisotropy": [1.497], "volume": [58.48519], "equilibrium_reaction_energy_per_atom": [-0.07643699]}