{"includesElement": ["", "Be", "Sr"], "includesElement___series_id": [4], "includesElement__abundance_crust": [2.8, 370.0], "includesElement__atomic_number": [4, 38], "includesElement__atomic_radius": [105.0, 200.0], "includesElement__atomic_radius_rahm": [219.0, 279.0], "includesElement__atomic_volume": [5.0, 33.7], "includesElement__atomic_weight": [9.012183, 87.62], "includesElement__covalent_radius_cordero": [96.0, 195.0], "includesElement__covalent_radius_pyykko": [102.0, 185.0], "includesElement__covalent_radius_pyykko_double": [90.0, 157.0], "includesElement__covalent_radius_pyykko_triple": [85.0, 139.0], "includesElement__density": [1.85, 2.64], "includesElement__dipole_polarizability": [37.74, 197.2], "includesElement__dipole_polarizability_unc": [0.03, 0.2], "includesElement__discovery_year": [1798, 1790], "includesElement__electron_affinity": [-2.4, 0.048], "includesElement__electronegativity_allred-rochow": [0.0001874279, 8.327246e-05], "includesElement__electronegativity_cottrell-sutton": [0.1382666, 0.1241185], "includesElement__electronegativity_ghosh": [0.144986, 0.1185082], "includesElement__electronegativity_gordy": [0.01911765, 0.01540541], "includesElement__electronegativity_mulliken": [3.461349, 2.871434], "includesElement__electronegativity_nagle": [0.3756148, 0.2164584], "includesElement__electronegativity_pauling": [1.57, 0.95], "includesElement__electronegativity_sanderson": [0.1268473, 0.2631786], "includesElement__en_ghosh": [0.144986, 0.1185082], "includesElement__en_pauling": [1.57, 0.95], "includesElement__evaporation_heat": [309.0, 144.0], "includesElement__fusion_heat": [12.21, 9.2], "includesElement__glawe_number": [77, 15], "includesElement__group_id": [2], "includesElement__heat_of_formation": [324.0, 164.0], "includesElement__is_radioactive": [false], "includesElement__lattice_constant": [2.29, 6.08], "includesElement__mendeleev_number": [75, 8], "includesElement__molar_heat_capacity": [16.443, 26.79], "includesElement__period": [2, 5], "includesElement__pettifor_number": [77, 15], "includesElement__specific_heat_capacity": [1.825, 0.306], "includesElement__vdw_radius": [153.0, 249.0], "includesElement__vdw_radius_alvarez": [198.0, 284.0], "includesElement__vdw_radius_mm3": [223.0, 300.0], "includesElement__vdw_radius_uff": [274.5, 364.1], "includesElement__abundance_sea": [5.6e-06, 7.9], "includesElement__atomic_weight_uncertainty": [5e-07, 0.01], "includesElement__c6_gb": [214.0, 3230.0], "includesElement__covalent_radius_bragg": [115.0, 195.0], "includesElement__electronegativity_allen": [9.323, 5.695], "includesElement__en_allen": [9.323, 5.695], "includesElement__metallic_radius": [89.0, 191.0], "includesElement__metallic_radius_c12": [112.0, 215.0], "includesElement__thermal_conductivity": [201.0], "includesElement__vdw_radius_batsanov": [190.0, 255.0], "includesElement__c6": [227.0, 3175.0], "includesElement__is_monoisotopic": [true], "includesElement__vdw_radius_truhlar": [153.0, 249.0], "formula": ["Be26Sr2"], "spacegroup": ["226"], "thermalConductivity": [14.5127], "icsd": ["58737"], "band_gap": [0.0], "density": [2.405518], "density_atomic": [10.0971], "deprecated": [false], "efermi": [3.679356], "energy_above_hull": [0.0], "energy_per_atom": [-3.643736], "formation_energy_per_atom": [-0.05053587], "is_gap_direct": [false], "is_magnetic": [false], "is_metal": [true], "is_stable": [true], "nelements": [2], "nsites": [28], "num_magnetic_sites": [0], "num_unique_magnetic_sites": [0], "theoretical": [false], "total_magnetization": [3e-07], "total_magnetization_normalized_formula_units": [1.5e-07], "total_magnetization_normalized_vol": [1.061125e-09], "uncorrected_energy_per_atom": [-5.162361], "volume": [282.7187], "equilibrium_reaction_energy_per_atom": [-0.05053587]}