{"includesElement": ["", "Zr", "Re"], "includesElement___series_id": [8], "includesElement__abundance_crust": [165.0, 0.0007], "includesElement__atomic_number": [40, 75], "includesElement__atomic_radius": [155.0, 135.0], "includesElement__atomic_radius_rahm": [269.0, 249.0], "includesElement__atomic_volume": [14.1, 8.85], "includesElement__atomic_weight": [91.224, 186.207], "includesElement__covalent_radius_cordero": [175.0, 151.0], "includesElement__covalent_radius_pyykko": [154.0, 131.0], "includesElement__covalent_radius_pyykko_double": [127.0, 119.0], "includesElement__covalent_radius_pyykko_triple": [121.0, 110.0], "includesElement__density": [6.52, 20.8], "includesElement__dipole_polarizability": [112.0, 62.0], "includesElement__dipole_polarizability_unc": [13.0, 3.0], "includesElement__discovery_year": [1789, 1925], "includesElement__electron_affinity": [0.426, 0.15], "includesElement__electronegativity_allred-rochow": [0.0001328217, 0.000209778], "includesElement__electronegativity_cottrell-sutton": [0.1430194, 0.1657737], "includesElement__electronegativity_ghosh": [0.1248887, 0.2435164], "includesElement__electronegativity_gordy": [0.02045455, 0.02748092], "includesElement__electronegativity_mulliken": [3.52995, 3.99176], "includesElement__electronegativity_nagle": [0.3293169, 0.4833208], "includesElement__electronegativity_pauling": [1.33, 1.9], "includesElement__electronegativity_sanderson": [0.4744467, 1.174592], "includesElement__en_ghosh": [0.1248887, 0.2435164], "includesElement__en_pauling": [1.33, 1.9], "includesElement__evaporation_heat": [567.0, 704.0], "includesElement__fusion_heat": [19.2, 34.0], "includesElement__glawe_number": [49, 58], "includesElement__group_id": [4, 7], "includesElement__heat_of_formation": [610.0, 774.0], "includesElement__is_radioactive": [false], "includesElement__lattice_constant": [3.23, 2.76], "includesElement__mendeleev_number": [44, 57], "includesElement__molar_heat_capacity": [25.36, 25.48], "includesElement__period": [5, 6], "includesElement__pettifor_number": [49, 59], "includesElement__specific_heat_capacity": [0.278, 0.137], "includesElement__vdw_radius": [223.0, 216.0], "includesElement__vdw_radius_alvarez": [252.0, 249.0], "includesElement__vdw_radius_mm3": [254.0, 237.0], "includesElement__vdw_radius_uff": [312.4, 295.4], "includesElement__abundance_sea": [3e-05, 4e-06], "includesElement__atomic_weight_uncertainty": [0.002, 0.001], "includesElement__c6_gb": [1360.0, 663.0], "includesElement__electronegativity_allen": [7.808, 9.46], "includesElement__en_allen": [7.808, 9.46], "includesElement__metallic_radius": [145.0, 128.0], "includesElement__metallic_radius_c12": [160.0, 137.0], "includesElement__thermal_conductivity": [22.7, 48.0], "includesElement__vdw_radius_batsanov": [230.0, 205.0], "formula": ["Re8Zr4"], "spacegroup": ["194"], "thermalConductivity": [2.97895, 2.98482, 2.97826, 2.83604], "icsd": ["650208", "650209", "650212", "650217"], "band_gap": [0.0], "density": [14.70847], "density_atomic": [17.44775], "deprecated": [false], "efermi": [6.251682], "energy_above_hull": [0.0], "energy_per_atom": [-11.50476], "formation_energy_per_atom": [-0.3567804], "homogeneous_poisson": [0.365], "is_gap_direct": [false], "is_magnetic": [false], "is_metal": [true], "is_stable": [true], "nelements": [2], "nsites": [12], "num_magnetic_sites": [0], "num_unique_magnetic_sites": [0], "theoretical": [false], "total_magnetization": [1.9e-06], "total_magnetization_normalized_formula_units": [4.75e-07], "total_magnetization_normalized_vol": [9.074715e-09], "uncorrected_energy_per_atom": [-42.95605], "universal_anisotropy": [0.016], "volume": [209.373], "equilibrium_reaction_energy_per_atom": [-0.06621832]}