{"includesElement": ["", "N", "U"], "includesElement___series_id": [1, 10], "includesElement__abundance_crust": [19.0, 2.7], "includesElement__atomic_number": [7, 92], "includesElement__atomic_radius": [65.0, 175.0], "includesElement__atomic_radius_rahm": [179.0, 283.0], "includesElement__atomic_volume": [17.3, 12.5], "includesElement__atomic_weight": [14.007, 238.0289], "includesElement__covalent_radius_cordero": [71.0, 196.0], "includesElement__covalent_radius_pyykko": [71.0, 170.0], "includesElement__covalent_radius_pyykko_double": [60.0, 134.0], "includesElement__covalent_radius_pyykko_triple": [54.0, 118.0], "includesElement__density": [0.001145, 19.1], "includesElement__dipole_polarizability": [7.4, 129.0], "includesElement__dipole_polarizability_unc": [0.2, 17.0], "includesElement__discovery_year": [1772, 1789], "includesElement__electron_affinity": [-1.4], "includesElement__electronegativity_allred-rochow": [0.000773656, 0.0001038062], "includesElement__electronegativity_cottrell-sutton": [0.2343706, 0.1328422], "includesElement__electronegativity_ghosh": [0.26493, 0.13207], "includesElement__electronegativity_gordy": [0.05492958, 0.01764706], "includesElement__electronegativity_mulliken": [6.567065, 3.097025], "includesElement__electronegativity_nagle": [0.8774979, 0.3596283], "includesElement__electronegativity_pauling": [3.04, 1.7], "includesElement__electronegativity_sanderson": [0.577482, 0.618118], "includesElement__en_ghosh": [0.26493, 0.13207], "includesElement__en_pauling": [3.04, 1.7], "includesElement__glawe_number": [88, 36], "includesElement__group_id": [15], "includesElement__heat_of_formation": [472.44, 533.0], "includesElement__is_radioactive": [false, true], "includesElement__lattice_constant": [4.039, 2.85], "includesElement__mendeleev_number": [93, 20], "includesElement__molar_heat_capacity": [29.124, 27.665], "includesElement__period": [2, 7], "includesElement__pettifor_number": [100, 45], "includesElement__specific_heat_capacity": [1.04, 0.116], "includesElement__vdw_radius": [155.0, 241.0], "includesElement__vdw_radius_alvarez": [166.0, 271.0], "includesElement__vdw_radius_mm3": [193.0, 252.0], "includesElement__vdw_radius_uff": [366.0, 339.5], "includesElement__abundance_sea": [0.5, 0.0032], "includesElement__c6_gb": [25.7], "includesElement__covalent_radius_bragg": [65.0], "includesElement__electronegativity_allen": [18.13], "includesElement__en_allen": [18.13], "includesElement__metallic_radius_c12": [53.0], "includesElement__thermal_conductivity": [0.026, 27.5], "includesElement__vdw_radius_batsanov": [160.0, 230.0], "includesElement__c6": [24.2], "includesElement__vdw_radius_dreiding": [366.21], "includesElement__gas_basicity": [318.7, 973.2], "includesElement__proton_affinity": [342.2, 995.2], "includesElement__vdw_radius_bondi": [155.0], "includesElement__vdw_radius_rt": [164.0], "includesElement__evaporation_heat": [417.0], "includesElement__fusion_heat": [12.6], "includesElement__atomic_weight_uncertainty": [3e-05], "formula": ["N2U1"], "spacegroup": ["225"], "thermalConductivity": [11.6899], "icsd": ["105129"], "band_gap": [0.6927], "density": [12.13049], "density_atomic": [12.13948], "deprecated": [false], "efermi": [9.786722], "energy_above_hull": [0.0], "energy_per_atom": [-34.37613], "formation_energy_per_atom": [-1.642954], "homogeneous_poisson": [0.338], "is_gap_direct": [false], "is_magnetic": [false], "is_metal": [false], "is_stable": [true], "nelements": [2], "nsites": [3], "num_magnetic_sites": [0], "num_unique_magnetic_sites": [0], "theoretical": [false], "total_magnetization": [0.0], "total_magnetization_normalized_formula_units": [0.0], "total_magnetization_normalized_vol": [0.0], "uncorrected_energy_per_atom": [-34.37613], "universal_anisotropy": [1.664], "volume": [36.41844], "cbm": [10.1175], "equilibrium_reaction_energy_per_atom": [-0.04796084], "vbm": [9.4248]}