{"includesElement": ["", "Ti", "Os"], "includesElement___series_id": [8], "includesElement__abundance_crust": [5650.0, 0.0015], "includesElement__atomic_number": [22, 76], "includesElement__atomic_radius": [140.0, 130.0], "includesElement__atomic_radius_rahm": [257.0, 244.0], "includesElement__atomic_volume": [10.6, 8.43], "includesElement__atomic_weight": [47.867, 190.23], "includesElement__covalent_radius_cordero": [160.0, 144.0], "includesElement__covalent_radius_pyykko": [136.0, 129.0], "includesElement__covalent_radius_pyykko_double": [117.0, 116.0], "includesElement__covalent_radius_pyykko_triple": [108.0, 109.0], "includesElement__density": [4.506, 22.5872], "includesElement__dipole_polarizability": [100.0, 57.0], "includesElement__dipole_polarizability_unc": [10.0, 3.0], "includesElement__discovery_year": [1791, 1804], "includesElement__electron_affinity": [0.079, 1.1], "includesElement__electronegativity_allred-rochow": [0.0001703071, 0.000225347], "includesElement__electronegativity_cottrell-sutton": [0.1521899, 0.1704986], "includesElement__electronegativity_ghosh": [0.1233637, 0.2479845], "includesElement__electronegativity_gordy": [0.02316176, 0.02906977], "includesElement__electronegativity_mulliken": [3.45356, 4.769115], "includesElement__electronegativity_nagle": [0.3419952, 0.5196828], "includesElement__electronegativity_pauling": [1.54, 2.2], "includesElement__electronegativity_sanderson": [0.4055462, 1.239276], "includesElement__en_ghosh": [0.1233637, 0.2479845], "includesElement__en_pauling": [1.54, 2.2], "includesElement__evaporation_heat": [422.6, 738.0], "includesElement__fusion_heat": [18.8, 31.7], "includesElement__glawe_number": [51, 60], "includesElement__group_id": [4, 8], "includesElement__heat_of_formation": [473.0, 787.0], "includesElement__is_radioactive": [false], "includesElement__lattice_constant": [2.95, 2.74], "includesElement__mendeleev_number": [43, 61], "includesElement__molar_heat_capacity": [25.06, 24.7], "includesElement__period": [4, 6], "includesElement__pettifor_number": [51, 62], "includesElement__specific_heat_capacity": [0.523, 0.13], "includesElement__vdw_radius": [211.0, 216.0], "includesElement__vdw_radius_alvarez": [246.0, 248.0], "includesElement__vdw_radius_mm3": [239.0, 235.0], "includesElement__vdw_radius_uff": [317.5, 312.0], "includesElement__abundance_sea": [0.001], "includesElement__atomic_weight_uncertainty": [0.001, 0.03], "includesElement__c6_gb": [1200.0, 584.0], "includesElement__covalent_radius_bragg": [140.0], "includesElement__electronegativity_allen": [8.17, 9.78], "includesElement__en_allen": [8.17, 9.78], "includesElement__metallic_radius": [132.0, 126.0], "includesElement__metallic_radius_c12": [147.0, 135.0], "includesElement__thermal_conductivity": [21.9], "includesElement__vdw_radius_batsanov": [215.0, 200.0], "includesElement__c6": [1044.0], "includesElement__gas_basicity": [853.7], "includesElement__proton_affinity": [876.0], "formula": ["Os1Ti1"], "spacegroup": ["221"], "thermalConductivity": [35.3901], "icsd": ["105572"], "band_gap": [0.0], "density": [13.47077], "density_atomic": [14.67509], "deprecated": [false], "efermi": [7.904172], "energy_above_hull": [0.0], "energy_per_atom": [-33.79079], "formation_energy_per_atom": [-0.8292994], "homogeneous_poisson": [0.277], "is_gap_direct": [false], "is_magnetic": [false], "is_metal": [true], "is_stable": [true], "nelements": [2], "nsites": [2], "num_magnetic_sites": [0], "num_unique_magnetic_sites": [0], "theoretical": [false], "total_magnetization": [3.55e-05], "total_magnetization_normalized_formula_units": [3.55e-05], "total_magnetization_normalized_vol": [1.209533e-06], "uncorrected_energy_per_atom": [-33.79079], "universal_anisotropy": [0.084], "volume": [29.35017], "equilibrium_reaction_energy_per_atom": [-0.535633]}