{"includesElement": ["", "Tl", "S", "Sc"], "includesElement___series_id": [7, 1, 8], "includesElement__abundance_crust": [0.85, 350.0, 22.0], "includesElement__atomic_number": [81, 16, 21], "includesElement__atomic_radius": [190.0, 100.0, 160.0], "includesElement__atomic_radius_rahm": [242.0, 214.0, 263.0], "includesElement__atomic_volume": [17.2, 15.5, 15.0], "includesElement__atomic_weight": [204.38, 32.06, 44.95591], "includesElement__covalent_radius_cordero": [145.0, 105.0, 170.0], "includesElement__covalent_radius_pyykko": [144.0, 103.0, 148.0], "includesElement__covalent_radius_pyykko_double": [142.0, 94.0, 116.0], "includesElement__covalent_radius_pyykko_triple": [150.0, 95.0, 114.0], "includesElement__density": [11.8, 2.07, 2.99], "includesElement__dipole_polarizability": [50.0, 19.4, 97.0], "includesElement__dipole_polarizability_unc": [2.0, 0.1, 10.0], "includesElement__discovery_year": [1861, 1879], "includesElement__electron_affinity": [0.377, 2.077104, 0.188], "includesElement__electronegativity_allred-rochow": [0.0002411265, 0.0005137148, 0.0001369613], "includesElement__electronegativity_cottrell-sutton": [0.186339, 0.2300274, 0.1423737], "includesElement__electronegativity_ghosh": [0.173447, 0.23596, 0.1193833], "includesElement__electronegativity_gordy": [0.03472222, 0.05291262, 0.02027027], "includesElement__electronegativity_mulliken": [3.242643, 6.218557, 3.374745], "includesElement__electronegativity_nagle": [0.3914868, 0.6762644, 0.3138941], "includesElement__electronegativity_pauling": [1.8, 2.58, 1.36], "includesElement__electronegativity_sanderson": [0.9245096, 0.6397251, 0.3038674], "includesElement__en_ghosh": [0.173447, 0.23596, 0.1193833], "includesElement__en_pauling": [1.8, 2.58, 1.36], "includesElement__evaporation_heat": [162.4, 10.5, 332.7], "includesElement__fusion_heat": [4.31, 1.23, 15.8], "includesElement__glawe_number": [81, 96, 48], "includesElement__group_id": [13, 16, 3], "includesElement__heat_of_formation": [182.2, 277.17, 377.8], "includesElement__is_radioactive": [false], "includesElement__lattice_constant": [3.46, 10.47, 3.31], "includesElement__mendeleev_number": [85, 100, 11], "includesElement__molar_heat_capacity": [26.32, 22.7, 25.52], "includesElement__period": [6, 3, 4], "includesElement__pettifor_number": [78, 94, 20], "includesElement__specific_heat_capacity": [0.129, 0.708, 0.568], "includesElement__vdw_radius": [196.0, 180.0, 215.0], "includesElement__vdw_radius_alvarez": [247.0, 189.0, 258.0], "includesElement__vdw_radius_mm3": [259.0, 215.0, 261.0], "includesElement__vdw_radius_uff": [434.7, 403.5, 329.5], "includesElement__abundance_sea": [1.9e-05, 905.0, 6e-07], "includesElement__c6_gb": [509.0, 140.0, 1570.0], "includesElement__covalent_radius_bragg": [190.0, 102.0], "includesElement__metallic_radius": [144.0, 104.0], "includesElement__metallic_radius_c12": [160.0, 127.0, 162.0], "includesElement__thermal_conductivity": [46.1, 0.27, 15.8], "includesElement__vdw_radius_batsanov": [220.0, 180.0, 230.0], "includesElement__vdw_radius_bondi": [196.0, 180.0], "includesElement__electronegativity_allen": [15.31, 7.042], "includesElement__en_allen": [15.31, 7.042], "includesElement__c6": [134.0, 1383.0], "includesElement__vdw_radius_dreiding": [403.0], "includesElement__gas_basicity": [640.2, 892.0], "includesElement__proton_affinity": [664.3, 914.0], "includesElement__vdw_radius_rt": [181.0], "includesElement__atomic_weight_uncertainty": [5e-06], "includesElement__is_monoisotopic": [true], "formula": ["S4Sc2Tl2"], "spacegroup": ["194"], "thermalConductivity": [3.16735], "icsd": ["418474"], "band_gap": [0.9331], "density": [5.590737], "density_atomic": [23.27635], "deprecated": [false], "efermi": [4.935115], "energy_above_hull": [0.0], "energy_per_atom": [-5.861113], "formation_energy_per_atom": [-1.615948], "homogeneous_poisson": [0.258], "is_gap_direct": [false], "is_magnetic": [false], "is_metal": [false], "is_stable": [true], "nelements": [3], "nsites": [8], "num_magnetic_sites": [0], "num_unique_magnetic_sites": [0], "theoretical": [false], "total_magnetization": [0.0], "total_magnetization_normalized_formula_units": [0.0], "total_magnetization_normalized_vol": [0.0], "uncorrected_energy_per_atom": [-21.73565], "universal_anisotropy": [0.084], "volume": [186.2108], "cbm": [5.7046], "e_electronic": [8.649247], "e_ionic": [22.18608], "e_total": [30.83533], "equilibrium_reaction_energy_per_atom": [-0.04321526], "n": [2.94096], "vbm": [4.7715]}