{"includesElement": ["", "Rh", "Ta"], "includesElement___series_id": [8], "includesElement__abundance_crust": [0.001, 2.0], "includesElement__atomic_number": [45, 73], "includesElement__atomic_radius": [135.0, 145.0], "includesElement__atomic_radius_rahm": [233.0, 258.0], "includesElement__atomic_volume": [8.3, 10.9], "includesElement__atomic_weight": [102.9055, 180.9479], "includesElement__covalent_radius_cordero": [142.0, 170.0], "includesElement__covalent_radius_pyykko": [125.0, 146.0], "includesElement__covalent_radius_pyykko_double": [110.0, 126.0], "includesElement__covalent_radius_pyykko_triple": [106.0, 119.0], "includesElement__density": [12.4, 16.4], "includesElement__dipole_polarizability": [66.0, 74.0], "includesElement__dipole_polarizability_unc": [10.0, 20.0], "includesElement__discovery_year": [1803, 1802], "includesElement__electron_affinity": [1.137, 0.322], "includesElement__electronegativity_allred-rochow": [0.0002176, 0.0001548133], "includesElement__electronegativity_cottrell-sutton": [0.1649242, 0.1503421], "includesElement__electronegativity_ghosh": [0.1408379, 0.234581], "includesElement__electronegativity_gordy": [0.0272, 0.02260274], "includesElement__electronegativity_mulliken": [4.29795, 3.935785], "includesElement__electronegativity_nagle": [0.5147142, 0.4072985], "includesElement__electronegativity_pauling": [2.28, 1.5], "includesElement__electronegativity_sanderson": [0.9761915, 0.8358832], "includesElement__en_ghosh": [0.1408379, 0.234581], "includesElement__en_pauling": [2.28, 1.5], "includesElement__evaporation_heat": [494.0, 758.0], "includesElement__fusion_heat": [21.8, 24.7], "includesElement__glawe_number": [63, 52], "includesElement__group_id": [9, 5], "includesElement__heat_of_formation": [556.0, 782.0], "includesElement__is_radioactive": [false], "includesElement__lattice_constant": [3.8, 3.31], "includesElement__mendeleev_number": [64, 49], "includesElement__molar_heat_capacity": [24.98, 25.36], "includesElement__period": [5, 6], "includesElement__pettifor_number": [66, 53], "includesElement__specific_heat_capacity": [0.243, 0.14], "includesElement__vdw_radius": [210.0, 222.0], "includesElement__vdw_radius_alvarez": [244.0, 253.0], "includesElement__vdw_radius_mm3": [234.0, 243.0], "includesElement__vdw_radius_uff": [292.9, 317.0], "includesElement__atomic_weight_uncertainty": [2e-05], "includesElement__c6_gb": [708.0, 887.0], "includesElement__electronegativity_allen": [9.259, 7.93], "includesElement__en_allen": [9.259, 7.93], "includesElement__metallic_radius": [125.0, 134.0], "includesElement__metallic_radius_c12": [134.0, 146.0], "includesElement__thermal_conductivity": [150.0, 57.5], "includesElement__vdw_radius_batsanov": [200.0, 220.0], "includesElement__is_monoisotopic": [true], "includesElement__gas_basicity": [745.4], "includesElement__proton_affinity": [768.0], "includesElement__abundance_sea": [2e-06], "formula": ["Rh3Ta1"], "spacegroup": ["221"], "thermalConductivity": [19.2166], "icsd": ["105939"], "band_gap": [0.0], "density": [14.03097], "density_atomic": [14.48772], "deprecated": [false], "efermi": [7.29481], "energy_above_hull": [0.0], "energy_per_atom": [-30.88891], "formation_energy_per_atom": [-0.6387818], "homogeneous_poisson": [0.253], "is_gap_direct": [false], "is_magnetic": [false], "is_metal": [true], "is_stable": [true], "nelements": [2], "nsites": [4], "num_magnetic_sites": [0], "num_unique_magnetic_sites": [0], "theoretical": [false], "total_magnetization": [2.4e-06], "total_magnetization_normalized_formula_units": [2.4e-06], "total_magnetization_normalized_vol": [4.141439e-08], "uncorrected_energy_per_atom": [-30.88891], "universal_anisotropy": [0.27], "volume": [57.95088], "equilibrium_reaction_energy_per_atom": [-0.1829625]}