{"includesElement": ["", "Al", "Ge", "Sr"], "includesElement___series_id": [7, 5, 4], "includesElement__abundance_crust": [82300.0, 1.5, 370.0], "includesElement__atomic_number": [13, 32, 38], "includesElement__atomic_radius": [125.0, 200.0], "includesElement__atomic_radius_rahm": [239.0, 234.0, 279.0], "includesElement__atomic_volume": [10.0, 13.6, 33.7], "includesElement__atomic_weight": [26.98154, 72.63, 87.62], "includesElement__covalent_radius_cordero": [121.0, 120.0, 195.0], "includesElement__covalent_radius_pyykko": [126.0, 121.0, 185.0], "includesElement__covalent_radius_pyykko_double": [113.0, 111.0, 157.0], "includesElement__covalent_radius_pyykko_triple": [111.0, 114.0, 139.0], "includesElement__density": [2.7, 5.3234, 2.64], "includesElement__dipole_polarizability": [57.8, 40.0, 197.2], "includesElement__dipole_polarizability_unc": [1.0, 0.2], "includesElement__discovery_year": [1825, 1886, 1790], "includesElement__electron_affinity": [0.43283, 1.232712, 0.048], "includesElement__electronegativity_allred-rochow": [0.0002204586, 0.0003859026, 8.327246e-05], "includesElement__electronegativity_cottrell-sutton": [0.1666667, 0.2160884, 0.1241185], "includesElement__electronegativity_ghosh": [0.150078, 0.1895892, 0.1185082], "includesElement__electronegativity_gordy": [0.02777778, 0.04669421, 0.01540541], "includesElement__electronegativity_mulliken": [3.209299, 4.566073, 2.871434], "includesElement__electronegativity_nagle": [0.3730192, 0.4641589, 0.2164584], "includesElement__electronegativity_pauling": [1.61, 2.01, 0.95], "includesElement__electronegativity_sanderson": [0.2360927, 0.8001471, 0.2631786], "includesElement__en_ghosh": [0.150078, 0.1895892, 0.1185082], "includesElement__en_pauling": [1.61, 2.01, 0.95], "includesElement__evaporation_heat": [284.1, 328.0, 144.0], "includesElement__fusion_heat": [10.75, 36.8, 9.2], "includesElement__glawe_number": [78, 84, 15], "includesElement__group_id": [13, 14, 2], "includesElement__heat_of_formation": [330.9, 372.0, 164.0], "includesElement__is_radioactive": [false], "includesElement__lattice_constant": [4.05, 5.66, 6.08], "includesElement__mendeleev_number": [82, 89, 8], "includesElement__molar_heat_capacity": [24.2, 23.222, 26.79], "includesElement__period": [3, 4, 5], "includesElement__pettifor_number": [80, 84, 15], "includesElement__specific_heat_capacity": [0.897, 0.32, 0.306], "includesElement__vdw_radius": [184.0, 211.0, 249.0], "includesElement__vdw_radius_alvarez": [225.0, 229.0, 284.0], "includesElement__vdw_radius_mm3": [236.0, 244.0, 300.0], "includesElement__vdw_radius_uff": [449.9, 428.0, 364.1], "includesElement__abundance_sea": [0.002, 5e-05, 7.9], "includesElement__atomic_weight_uncertainty": [7e-07, 0.008, 0.01], "includesElement__c6_gb": [520.0, 365.0, 3230.0], "includesElement__covalent_radius_bragg": [135.0, 195.0], "includesElement__electronegativity_allen": [9.539, 11.8, 5.695], "includesElement__en_allen": [9.539, 11.8, 5.695], "includesElement__metallic_radius": [125.0, 124.0, 191.0], "includesElement__metallic_radius_c12": [143.0, 144.0, 215.0], "includesElement__thermal_conductivity": [237.0, 60.2], "includesElement__vdw_radius_batsanov": [210.0, 255.0], "includesElement__c6": [528.0, 354.0, 3175.0], "includesElement__is_monoisotopic": [true], "includesElement__vdw_radius_dreiding": [439.0, 427.0], "includesElement__vdw_radius_truhlar": [184.0, 211.0, 249.0], "formula": ["Al1Ge1Sr1"], "spacegroup": ["187"], "thermalConductivity": [5.647], "icsd": ["166379"], "band_gap": [0.0], "density": [4.069565], "density_atomic": [25.46725], "deprecated": [false], "efermi": [4.209069], "energy_above_hull": [0.0], "energy_per_atom": [-3.823092], "formation_energy_per_atom": [-0.4694148], "homogeneous_poisson": [0.205], "is_gap_direct": [false], "is_magnetic": [false], "is_metal": [true], "is_stable": [true], "nelements": [3], "nsites": [3], "num_magnetic_sites": [0], "num_unique_magnetic_sites": [0], "theoretical": [false], "total_magnetization": [2.4e-06], "total_magnetization_normalized_formula_units": [2.4e-06], "total_magnetization_normalized_vol": [3.141289e-08], "uncorrected_energy_per_atom": [-12.46361], "universal_anisotropy": [0.252], "volume": [76.40175], "equilibrium_reaction_energy_per_atom": [-0.01530698]}