{"includesElement": ["", "Sn", "Au", "U"], "includesElement___series_id": [7, 8, 10], "includesElement__abundance_crust": [2.3, 0.004, 2.7], "includesElement__atomic_number": [50, 79, 92], "includesElement__atomic_radius": [145.0, 135.0, 175.0], "includesElement__atomic_radius_rahm": [248.0, 226.0, 283.0], "includesElement__atomic_volume": [16.3, 10.2, 12.5], "includesElement__atomic_weight": [118.71, 196.9666, 238.0289], "includesElement__covalent_radius_cordero": [139.0, 136.0, 196.0], "includesElement__covalent_radius_pyykko": [140.0, 124.0, 170.0], "includesElement__covalent_radius_pyykko_double": [130.0, 121.0, 134.0], "includesElement__covalent_radius_pyykko_triple": [132.0, 123.0, 118.0], "includesElement__density": [7.287, 19.3, 19.1], "includesElement__dipole_polarizability": [53.0, 36.0, 129.0], "includesElement__dipole_polarizability_unc": [6.0, 3.0, 17.0], "includesElement__electron_affinity": [1.112067, 2.30863], "includesElement__electronegativity_allred-rochow": [0.0002882653, 0.0002406348, 0.0001038062], "includesElement__electronegativity_cottrell-sutton": [0.2008909, 0.1727388, 0.1328422], "includesElement__electronegativity_ghosh": [0.178052, 0.26137, 0.13207], "includesElement__electronegativity_gordy": [0.04035714, 0.02983871, 0.01764706], "includesElement__electronegativity_mulliken": [4.227992, 5.767091, 3.097025], "includesElement__electronegativity_nagle": [0.4225986, 0.67354, 0.3596283], "includesElement__electronegativity_pauling": [1.96, 2.4, 1.7], "includesElement__electronegativity_sanderson": [0.7622797, 1.426701, 0.618118], "includesElement__en_ghosh": [0.178052, 0.26137, 0.13207], "includesElement__en_pauling": [1.96, 2.4, 1.7], "includesElement__evaporation_heat": [296.0, 340.0, 417.0], "includesElement__fusion_heat": [7.07, 12.68, 12.6], "includesElement__glawe_number": [83, 66, 36], "includesElement__group_id": [14, 11], "includesElement__heat_of_formation": [301.2, 368.2, 533.0], "includesElement__is_radioactive": [false, true], "includesElement__lattice_constant": [5.82, 4.08, 2.85], "includesElement__mendeleev_number": [90, 73, 20], "includesElement__molar_heat_capacity": [26.99, 25.418, 27.665], "includesElement__period": [5, 6, 7], "includesElement__pettifor_number": [83, 70, 45], "includesElement__specific_heat_capacity": [0.227, 0.129, 0.116], "includesElement__vdw_radius": [217.0, 214.0, 241.0], "includesElement__vdw_radius_alvarez": [242.0, 232.0, 271.0], "includesElement__vdw_radius_mm3": [259.0, 243.0, 252.0], "includesElement__vdw_radius_uff": [439.2, 329.3, 339.5], "includesElement__abundance_sea": [4e-06, 0.0032], "includesElement__atomic_weight_uncertainty": [0.007, 5e-06, 3e-05], "includesElement__c6_gb": [715.0, 427.0], "includesElement__covalent_radius_bragg": [140.0], "includesElement__electronegativity_allen": [10.79, 11.33], "includesElement__en_allen": [10.79, 11.33], "includesElement__metallic_radius": [142.0, 134.0], "includesElement__metallic_radius_c12": [163.0, 144.0], "includesElement__thermal_conductivity": [66.8, 318.0, 27.5], "includesElement__vdw_radius_batsanov": [225.0, 210.0, 230.0], "includesElement__c6": [659.0], "includesElement__vdw_radius_dreiding": [447.0], "includesElement__vdw_radius_bondi": [217.0], "includesElement__is_monoisotopic": [true], "includesElement__discovery_year": [1789], "includesElement__gas_basicity": [973.2], "includesElement__proton_affinity": [995.2], "formula": ["Au2Sn1U1"], "spacegroup": ["225"], "thermalConductivity": [0.642032], "icsd": ["58593"], "band_gap": [0.0], "density": [14.09444], "density_atomic": [22.11014], "deprecated": [false], "efermi": [8.62546], "energy_above_hull": [0.009695492], "energy_per_atom": [-5.691192], "formation_energy_per_atom": [-0.229006], "homogeneous_poisson": [-0.202], "is_gap_direct": [false], "is_magnetic": [true], "is_metal": [true], "is_stable": [false], "nelements": [3], "nsites": [4], "num_magnetic_sites": [1], "num_unique_magnetic_sites": [1], "theoretical": [false], "total_magnetization": [2.760531], "total_magnetization_normalized_formula_units": [2.760531], "total_magnetization_normalized_vol": [0.03121341], "uncorrected_energy_per_atom": [-51.83744], "universal_anisotropy": [-4.919], "volume": [88.44056]}