{"includesElement": ["", "Li", "Pd", "In"], "includesElement___series_id": [3, 8, 7], "includesElement__abundance_crust": [20.0, 0.015, 0.25], "includesElement__atomic_number": [3, 46, 49], "includesElement__atomic_radius": [145.0, 140.0, 155.0], "includesElement__atomic_radius_rahm": [220.0, 215.0, 246.0], "includesElement__atomic_volume": [13.1, 8.9, 15.7], "includesElement__atomic_weight": [6.94, 106.42, 114.818], "includesElement__covalent_radius_cordero": [128.0, 139.0, 142.0], "includesElement__covalent_radius_pyykko": [133.0, 120.0, 142.0], "includesElement__covalent_radius_pyykko_double": [124.0, 117.0, 136.0], "includesElement__density": [0.534, 12.0, 7.31], "includesElement__dipole_polarizability": [164.1125, 26.14, 65.0], "includesElement__dipole_polarizability_unc": [0.0005, 0.1, 4.0], "includesElement__discovery_year": [1817, 1803, 1863], "includesElement__electron_affinity": [0.618049, 0.562, 0.3], "includesElement__electronegativity_allred-rochow": [7.3492e-05, 0.0004756944, 0.0002479667], "includesElement__electronegativity_cottrell-sutton": [0.09886575, 0.2389212, 0.1876467], "includesElement__electronegativity_ghosh": [0.105093, 0.1440276, 0.16423], "includesElement__electronegativity_gordy": [0.009774436, 0.05708333, 0.03521127], "includesElement__electronegativity_mulliken": [3.004882, 4.44943, 3.043178], "includesElement__electronegativity_nagle": [0.1826499, 0.7259357, 0.3587038], "includesElement__electronegativity_pauling": [0.98, 2.2, 1.78], "includesElement__electronegativity_sanderson": [0.04886793, 1.124263, 0.7172747], "includesElement__en_ghosh": [0.105093, 0.1440276, 0.16423], "includesElement__en_pauling": [0.98, 2.2, 1.78], "includesElement__evaporation_heat": [148.0, 372.4, 225.1], "includesElement__fusion_heat": [2.89, 17.24, 3.24], "includesElement__glawe_number": [12, 65, 80], "includesElement__group_id": [1, 10, 13], "includesElement__heat_of_formation": [159.3, 376.6, 243.0], "includesElement__is_radioactive": [false], "includesElement__lattice_constant": [3.49, 3.89, 4.59], "includesElement__mendeleev_number": [1, 68, 84], "includesElement__molar_heat_capacity": [24.86, 25.98, 26.74], "includesElement__period": [2, 5], "includesElement__pettifor_number": [12, 69, 79], "includesElement__specific_heat_capacity": [3.582, 0.246, 0.233], "includesElement__vdw_radius": [182.0, 210.0, 193.0], "includesElement__vdw_radius_alvarez": [212.0, 215.0, 243.0], "includesElement__vdw_radius_mm3": [255.0, 237.0, 264.0], "includesElement__vdw_radius_uff": [245.1, 289.9, 446.3], "includesElement__abundance_sea": [0.18, 0.02], "includesElement__c6_gb": [1410.0, 628.0, 643.0], "includesElement__covalent_radius_bragg": [150.0], "includesElement__electronegativity_allen": [5.392, 9.402, 9.793], "includesElement__en_allen": [5.392, 9.402, 9.793], "includesElement__metallic_radius": [123.0, 128.0, 142.0], "includesElement__metallic_radius_c12": [155.0, 137.0, 158.0], "includesElement__thermal_conductivity": [84.8, 71.8, 81.8], "includesElement__vdw_radius_batsanov": [220.0, 205.0], "includesElement__c6": [1392.0, 779.0], "includesElement__vdw_radius_bondi": [181.0, 193.0], "includesElement__covalent_radius_pyykko_triple": [112.0, 146.0], "includesElement__atomic_weight_uncertainty": [0.01, 0.001], "includesElement__gas_basicity": [673.4], "includesElement__proton_affinity": [696.0], "includesElement__vdw_radius_dreiding": [459.0], "formula": ["In2Li1Pd1"], "spacegroup": ["225"], "thermalConductivity": [1.63892], "icsd": ["106803"], "band_gap": [0.0], "density": [8.075753], "density_atomic": [17.63179], "deprecated": [false], "efermi": [7.673413], "energy_above_hull": [0.0], "energy_per_atom": [-18.14564], "formation_energy_per_atom": [-0.5195556], "homogeneous_poisson": [0.373], "is_gap_direct": [false], "is_magnetic": [false], "is_metal": [true], "is_stable": [true], "nelements": [3], "nsites": [4], "num_magnetic_sites": [0], "num_unique_magnetic_sites": [0], "theoretical": [false], "total_magnetization": [0.0], "total_magnetization_normalized_formula_units": [0.0], "total_magnetization_normalized_vol": [0.0], "uncorrected_energy_per_atom": [-18.14564], "universal_anisotropy": [9.382], "volume": [70.52716], "equilibrium_reaction_energy_per_atom": [-0.02871147]}