{"includesElement": ["Bi", "Pt", "Gd"], "includesElement___series_id": [7, 8, 9], "includesElement__abundance_crust": [0.0085, 0.005, 6.2], "includesElement__atomic_number": [83, 78, 64], "includesElement__atomic_radius": [160.0, 135.0, 180.0], "includesElement__atomic_radius_rahm": [250.0, 230.0, 277.0], "includesElement__atomic_volume": [21.3, 9.1, 19.9], "includesElement__atomic_weight": [208.9804, 195.084, 157.25], "includesElement__covalent_radius_cordero": [148.0, 136.0, 196.0], "includesElement__covalent_radius_pyykko": [151.0, 123.0, 169.0], "includesElement__covalent_radius_pyykko_double": [141.0, 112.0, 135.0], "includesElement__covalent_radius_pyykko_triple": [135.0, 110.0, 132.0], "includesElement__density": [9.79, 21.5, 7.9], "includesElement__dipole_polarizability": [48.0, 158.0], "includesElement__dipole_polarizability_unc": [4.0, 20.0], "includesElement__electron_affinity": [0.942362, 2.128], "includesElement__electronegativity_allred-rochow": [0.0002763037, 0.0002346487, 0.0001050383], "includesElement__electronegativity_cottrell-sutton": [0.2042593, 0.1698876, 0.1332347], "includesElement__electronegativity_ghosh": [0.182377, 0.25691, 0.1944], "includesElement__electronegativity_gordy": [0.04172185, 0.02886179, 0.01775148], "includesElement__electronegativity_mulliken": [4.113939, 5.543415, 3.074898], "includesElement__electronegativity_nagle": [0.470518, 0.5928156, 0.3985177], "includesElement__electronegativity_pauling": [1.9, 2.2, 1.2], "includesElement__electronegativity_sanderson": [0.8136501, 1.45101, 0.503386], "includesElement__en_ghosh": [0.182377, 0.25691, 0.1944], "includesElement__en_pauling": [1.9, 2.2, 1.2], "includesElement__evaporation_heat": [172.0, 470.0, 398.0], "includesElement__fusion_heat": [11.0, 21.76], "includesElement__glawe_number": [92, 64, 26], "includesElement__group_id": [15, 10], "includesElement__heat_of_formation": [209.6, 565.7, 397.5], "includesElement__is_radioactive": [false], "includesElement__lattice_constant": [4.75, 3.92, 3.64], "includesElement__mendeleev_number": [97, 69, 27], "includesElement__molar_heat_capacity": [25.52, 25.86, 37.03], "includesElement__period": [6], "includesElement__pettifor_number": [87, 68, 27], "includesElement__specific_heat_capacity": [0.122, 0.133, 0.236], "includesElement__vdw_radius": [207.0, 213.0, 234.0], "includesElement__vdw_radius_alvarez": [254.0, 229.0, 283.0], "includesElement__vdw_radius_mm3": [266.0, 239.0, 271.0], "includesElement__vdw_radius_uff": [437.0, 275.4, 336.8], "includesElement__abundance_sea": [2e-05, 7e-07], "includesElement__atomic_weight_uncertainty": [1e-05, 0.009, 0.03], "includesElement__c6_gb": [513.0, 470.0, 2340.0], "includesElement__covalent_radius_bragg": [148.0], "includesElement__electronegativity_allen": [11.9, 10.16], "includesElement__en_allen": [11.9, 10.16], "includesElement__metallic_radius": [151.0, 130.0], "includesElement__metallic_radius_c12": [178.0, 139.0], "includesElement__thermal_conductivity": [7.9, 71.6], "includesElement__vdw_radius_batsanov": [230.0, 205.0], "includesElement__is_monoisotopic": [true], "includesElement__vdw_radius_truhlar": [207.0], "includesElement__discovery_year": [1735, 1880], "formula": ["GdBiPt"], "mp_id": ["620271"], "thermalConductivity": [5.54], "band_gap": [0.0], "density": [12.1308], "density_atomic": [25.61206], "deprecated": [false], "efermi": [4.773454], "energy_above_hull": [0.0], "energy_per_atom": [-9.033336], "formation_energy_per_atom": [-1.037421], "is_gap_direct": [false], "is_magnetic": [true], "is_metal": [true], "is_stable": [true], "nelements": [3], "nsites": [3], "num_magnetic_sites": [1], "num_unique_magnetic_sites": [1], "theoretical": [false], "total_magnetization": [7.00535], "total_magnetization_normalized_formula_units": [7.00535], "total_magnetization_normalized_vol": [0.09117255], "uncorrected_energy_per_atom": [-52.25272], "volume": [76.83618], "equilibrium_reaction_energy_per_atom": [-0.1712985]}