{"includesElement": ["", "Mg", "Rh", "Dy"], "includesElement___series_id": [4, 8, 9], "includesElement__abundance_crust": [23300.0, 0.001, 5.2], "includesElement__atomic_number": [12, 45, 66], "includesElement__atomic_radius": [150.0, 135.0, 175.0], "includesElement__atomic_radius_rahm": [240.0, 233.0, 275.0], "includesElement__atomic_volume": [14.0, 8.3, 19.0], "includesElement__atomic_weight": [24.305, 102.9055, 162.5], "includesElement__covalent_radius_cordero": [141.0, 142.0, 192.0], "includesElement__covalent_radius_pyykko": [139.0, 125.0, 167.0], "includesElement__covalent_radius_pyykko_double": [132.0, 110.0, 133.0], "includesElement__covalent_radius_pyykko_triple": [127.0, 106.0], "includesElement__density": [1.74, 12.4, 8.55], "includesElement__dipole_polarizability": [71.2, 66.0, 163.0], "includesElement__dipole_polarizability_unc": [0.4, 10.0, 15.0], "includesElement__discovery_year": [1808, 1803, 1886], "includesElement__electronegativity_allred-rochow": [0.0001475079, 0.0002176, 0.0001021908], "includesElement__electronegativity_cottrell-sutton": [0.1431908, 0.1649242, 0.1306364], "includesElement__electronegativity_ghosh": [0.121644, 0.1408379, 0.20333], "includesElement__electronegativity_gordy": [0.0205036, 0.0272, 0.01706587], "includesElement__electronegativity_mulliken": [3.823117, 4.29795, 3.145525], "includesElement__electronegativity_nagle": [0.3039835, 0.5147142, 0.4191131], "includesElement__electronegativity_pauling": [1.31, 2.28, 1.22], "includesElement__electronegativity_sanderson": [0.1524211, 0.9761915, 0.5297338], "includesElement__en_ghosh": [0.121644, 0.1408379, 0.20333], "includesElement__en_pauling": [1.31, 2.28, 1.22], "includesElement__evaporation_heat": [131.8, 494.0, 291.0], "includesElement__fusion_heat": [9.2, 21.8], "includesElement__glawe_number": [73, 63, 24], "includesElement__group_id": [2, 9], "includesElement__heat_of_formation": [147.1, 556.0, 290.4], "includesElement__is_radioactive": [false], "includesElement__lattice_constant": [3.21, 3.8, 3.59], "includesElement__mendeleev_number": [76, 64, 31], "includesElement__molar_heat_capacity": [24.869, 24.98, 28.16], "includesElement__period": [3, 5, 6], "includesElement__pettifor_number": [73, 66, 25], "includesElement__specific_heat_capacity": [1.023, 0.243, 0.173], "includesElement__vdw_radius": [173.0, 210.0, 231.0], "includesElement__vdw_radius_alvarez": [251.0, 244.0, 287.0], "includesElement__vdw_radius_mm3": [243.0, 234.0, 290.0], "includesElement__vdw_radius_uff": [302.1, 292.9, 342.8], "includesElement__abundance_sea": [1290.0, 9.1e-07], "includesElement__c6_gb": [629.0, 708.0, 2430.0], "includesElement__covalent_radius_bragg": [142.0], "includesElement__electronegativity_allen": [7.646, 9.259], "includesElement__en_allen": [7.646, 9.259], "includesElement__metallic_radius": [136.0, 125.0], "includesElement__metallic_radius_c12": [160.0, 134.0], "includesElement__thermal_conductivity": [156.0, 150.0, 10.7], "includesElement__vdw_radius_batsanov": [220.0, 200.0], "includesElement__c6": [626.0], "includesElement__gas_basicity": [797.3, 745.4], "includesElement__proton_affinity": [819.6, 768.0], "includesElement__vdw_radius_bondi": [173.0], "includesElement__electron_affinity": [1.137, 0.352], "includesElement__atomic_weight_uncertainty": [2e-05, 0.001], "includesElement__is_monoisotopic": [true], "formula": ["Dy16Mg4Rh4"], "spacegroup": ["216"], "thermalConductivity": [1.3457], "icsd": ["417454"], "band_gap": [0.0], "density": [8.087902], "density_atomic": [26.59504], "deprecated": [false], "efermi": [3.585173], "energy_above_hull": [0.0], "energy_per_atom": [-4.962493], "formation_energy_per_atom": [-0.3844464], "is_gap_direct": [false], "is_magnetic": [false], "is_metal": [true], "is_stable": [true], "nelements": [3], "nsites": [24], "num_magnetic_sites": [0], "num_unique_magnetic_sites": [0], "theoretical": [false], "total_magnetization": [0.0001869], "total_magnetization_normalized_formula_units": [4.6725e-05], "total_magnetization_normalized_vol": [2.928178e-07], "uncorrected_energy_per_atom": [-26.47105], "volume": [638.2809], "equilibrium_reaction_energy_per_atom": [-0.02334953]}