{"includesElement": ["", "As", "Dy"], "includesElement___series_id": [5, 9], "includesElement__abundance_crust": [1.8, 5.2], "includesElement__atomic_number": [33, 66], "includesElement__atomic_radius": [115.0, 175.0], "includesElement__atomic_radius_rahm": [231.0, 275.0], "includesElement__atomic_volume": [13.1, 19.0], "includesElement__atomic_weight": [74.92159, 162.5], "includesElement__covalent_radius_cordero": [119.0, 192.0], "includesElement__covalent_radius_pyykko": [121.0, 167.0], "includesElement__covalent_radius_pyykko_double": [114.0, 133.0], "includesElement__covalent_radius_pyykko_triple": [106.0], "includesElement__density": [5.75, 8.55], "includesElement__dipole_polarizability": [30.0, 163.0], "includesElement__dipole_polarizability_unc": [1.0, 15.0], "includesElement__electron_affinity": [0.804, 0.352], "includesElement__electronegativity_allred-rochow": [0.0004302985, 0.0001021908], "includesElement__electronegativity_cottrell-sutton": [0.22818, 0.1306364], "includesElement__electronegativity_ghosh": [0.2068208, 0.20333], "includesElement__electronegativity_gordy": [0.05206612, 0.01706587], "includesElement__electronegativity_mulliken": [5.2965, 3.145525], "includesElement__electronegativity_nagle": [0.5503212, 0.4191131], "includesElement__electronegativity_pauling": [2.18, 1.22], "includesElement__electronegativity_sanderson": [0.8253373, 0.5297338], "includesElement__en_ghosh": [0.2068208, 0.20333], "includesElement__en_pauling": [2.18, 1.22], "includesElement__evaporation_heat": [32.4, 291.0], "includesElement__glawe_number": [90, 24], "includesElement__group_id": [15], "includesElement__heat_of_formation": [302.5, 290.4], "includesElement__is_radioactive": [false], "includesElement__lattice_constant": [4.13, 3.59], "includesElement__mendeleev_number": [95, 31], "includesElement__molar_heat_capacity": [24.64, 28.16], "includesElement__period": [4, 6], "includesElement__pettifor_number": [89, 25], "includesElement__specific_heat_capacity": [0.329, 0.173], "includesElement__vdw_radius": [185.0, 231.0], "includesElement__vdw_radius_alvarez": [188.0, 287.0], "includesElement__vdw_radius_mm3": [236.0, 290.0], "includesElement__vdw_radius_uff": [423.0, 342.8], "includesElement__abundance_sea": [0.0037, 9.1e-07], "includesElement__atomic_weight_uncertainty": [6e-06, 0.001], "includesElement__c6_gb": [260.0, 2430.0], "includesElement__covalent_radius_bragg": [126.0], "includesElement__electronegativity_allen": [13.08], "includesElement__en_allen": [13.08], "includesElement__metallic_radius": [121.0], "includesElement__metallic_radius_c12": [148.0], "includesElement__vdw_radius_batsanov": [205.0], "includesElement__c6": [246.0], "includesElement__is_monoisotopic": [true], "includesElement__vdw_radius_dreiding": [415.0], "includesElement__vdw_radius_bondi": [185.0], "includesElement__discovery_year": [1886], "includesElement__thermal_conductivity": [10.7], "formula": ["As1Dy1"], "spacegroup": ["225"], "thermalConductivity": [14.5115], "icsd": ["187520"], "band_gap": [0.0], "density": [8.055273], "density_atomic": [24.47141], "deprecated": [false], "efermi": [4.20121], "energy_above_hull": [0.0], "energy_per_atom": [-25.15525], "formation_energy_per_atom": [-1.810579], "homogeneous_poisson": [0.221], "is_gap_direct": [false], "is_magnetic": [false], "is_metal": [true], "is_stable": [true], "nelements": [2], "nsites": [2], "num_magnetic_sites": [0], "num_unique_magnetic_sites": [0], "theoretical": [false], "total_magnetization": [0.0], "total_magnetization_normalized_formula_units": [0.0], "total_magnetization_normalized_vol": [0.0], "uncorrected_energy_per_atom": [-25.15525], "universal_anisotropy": [0.647], "volume": [48.94283], "equilibrium_reaction_energy_per_atom": [-1.810579]}