{"includesElement": ["", "Zr", "In", "C"], "includesElement___series_id": [8, 7, 1], "includesElement__abundance_crust": [165.0, 0.25, 200.0], "includesElement__atomic_number": [40, 49, 6], "includesElement__atomic_radius": [155.0, 70.0], "includesElement__atomic_radius_rahm": [269.0, 246.0, 190.0], "includesElement__atomic_volume": [14.1, 15.7, 5.3], "includesElement__atomic_weight": [91.224, 114.818, 12.011], "includesElement__covalent_radius_cordero": [175.0, 142.0, 73.0], "includesElement__covalent_radius_pyykko": [154.0, 142.0, 75.0], "includesElement__covalent_radius_pyykko_double": [127.0, 136.0, 67.0], "includesElement__covalent_radius_pyykko_triple": [121.0, 146.0, 60.0], "includesElement__density": [6.52, 7.31, 2.2], "includesElement__dipole_polarizability": [112.0, 65.0, 11.3], "includesElement__dipole_polarizability_unc": [13.0, 4.0, 0.2], "includesElement__discovery_year": [1789, 1863], "includesElement__electron_affinity": [0.426, 0.3, 1.262119], "includesElement__electronegativity_allred-rochow": [0.0001328217, 0.0002479667, 0.0005777778], "includesElement__electronegativity_cottrell-sutton": [0.1430194, 0.1876467, 0.2081666], "includesElement__electronegativity_ghosh": [0.1248887, 0.16423, 0.224776], "includesElement__electronegativity_gordy": [0.02045455, 0.03521127, 0.04333333], "includesElement__electronegativity_mulliken": [3.52995, 3.043178, 6.261208], "includesElement__electronegativity_nagle": [0.3293169, 0.3587038, 0.7073926], "includesElement__electronegativity_pauling": [1.33, 1.78, 2.55], "includesElement__electronegativity_sanderson": [0.4744467, 0.7172747, 0.427525], "includesElement__en_ghosh": [0.1248887, 0.16423, 0.224776], "includesElement__en_pauling": [1.33, 1.78, 2.55], "includesElement__evaporation_heat": [567.0, 225.1], "includesElement__fusion_heat": [19.2, 3.24], "includesElement__glawe_number": [49, 80, 87], "includesElement__group_id": [4, 13, 14], "includesElement__heat_of_formation": [610.0, 243.0, 716.87], "includesElement__is_radioactive": [false], "includesElement__lattice_constant": [3.23, 4.59, 3.57], "includesElement__mendeleev_number": [44, 84, 87], "includesElement__molar_heat_capacity": [25.36, 26.74, 8.517], "includesElement__period": [5, 2], "includesElement__pettifor_number": [49, 79, 95], "includesElement__specific_heat_capacity": [0.278, 0.233, 0.709], "includesElement__vdw_radius": [223.0, 193.0, 170.0], "includesElement__vdw_radius_alvarez": [252.0, 243.0, 177.0], "includesElement__vdw_radius_mm3": [254.0, 264.0, 204.0], "includesElement__vdw_radius_uff": [312.4, 446.3, 385.1], "includesElement__abundance_sea": [3e-05, 0.02, 28.0], "includesElement__atomic_weight_uncertainty": [0.002, 0.001], "includesElement__c6_gb": [1360.0, 643.0, 47.9], "includesElement__electronegativity_allen": [7.808, 9.793, 15.05], "includesElement__en_allen": [7.808, 9.793, 15.05], "includesElement__metallic_radius": [145.0, 142.0], "includesElement__metallic_radius_c12": [160.0, 158.0, 86.0], "includesElement__thermal_conductivity": [22.7, 81.8, 1.59], "includesElement__vdw_radius_batsanov": [230.0, 220.0, 170.0], "includesElement__c6": [779.0, 46.6], "includesElement__vdw_radius_dreiding": [459.0, 389.83], "includesElement__vdw_radius_bondi": [193.0, 170.0], "includesElement__covalent_radius_bragg": [77.0], "includesElement__vdw_radius_rt": [177.0], "formula": ["C2In2Zr4"], "spacegroup": ["194"], "thermalConductivity": [13.5954], "icsd": ["161966"], "band_gap": [0.0], "density": [6.974084], "density_atomic": [18.4098], "deprecated": [false], "efermi": [6.245007], "energy_above_hull": [0.0], "energy_per_atom": [-7.961113], "formation_energy_per_atom": [-0.6903025], "homogeneous_poisson": [0.21], "is_gap_direct": [false], "is_magnetic": [false], "is_metal": [true], "is_stable": [true], "nelements": [3], "nsites": [8], "num_magnetic_sites": [0], "num_unique_magnetic_sites": [0], "theoretical": [false], "total_magnetization": [8e-07], "total_magnetization_normalized_formula_units": [4e-07], "total_magnetization_normalized_vol": [5.431889e-09], "uncorrected_energy_per_atom": [-20.34619], "universal_anisotropy": [0.062], "volume": [147.2784], "equilibrium_reaction_energy_per_atom": [-0.1247272]}