{"includesElement": ["", "Sb", "Pd", "U"], "includesElement___series_id": [5, 8, 10], "includesElement__abundance_crust": [0.2, 0.015, 2.7], "includesElement__atomic_number": [51, 46, 92], "includesElement__atomic_radius": [145.0, 140.0, 175.0], "includesElement__atomic_radius_rahm": [246.0, 215.0, 283.0], "includesElement__atomic_volume": [18.4, 8.9, 12.5], "includesElement__atomic_weight": [121.76, 106.42, 238.0289], "includesElement__covalent_radius_cordero": [139.0, 196.0], "includesElement__covalent_radius_pyykko": [140.0, 120.0, 170.0], "includesElement__covalent_radius_pyykko_double": [133.0, 117.0, 134.0], "includesElement__covalent_radius_pyykko_triple": [127.0, 112.0, 118.0], "includesElement__density": [6.68, 12.0, 19.1], "includesElement__dipole_polarizability": [43.0, 26.14, 129.0], "includesElement__dipole_polarizability_unc": [2.0, 0.1, 17.0], "includesElement__electron_affinity": [1.046, 0.562], "includesElement__electronegativity_allred-rochow": [0.0003214286, 0.0004756944, 0.0001038062], "includesElement__electronegativity_cottrell-sutton": [0.212132, 0.2389212, 0.1328422], "includesElement__electronegativity_ghosh": [0.1918774, 0.1440276, 0.13207], "includesElement__electronegativity_gordy": [0.045, 0.05708333, 0.01764706], "includesElement__electronegativity_mulliken": [4.827195, 4.44943, 3.097025], "includesElement__electronegativity_nagle": [0.4880907, 0.7259357, 0.3596283], "includesElement__electronegativity_pauling": [2.05, 2.2, 1.7], "includesElement__electronegativity_sanderson": [0.7762722, 1.124263, 0.618118], "includesElement__en_ghosh": [0.1918774, 0.1440276, 0.13207], "includesElement__en_pauling": [2.05, 2.2, 1.7], "includesElement__evaporation_heat": [195.2, 372.4, 417.0], "includesElement__fusion_heat": [20.08, 17.24, 12.6], "includesElement__glawe_number": [91, 65, 36], "includesElement__group_id": [15, 10], "includesElement__heat_of_formation": [264.4, 376.6, 533.0], "includesElement__is_radioactive": [false, true], "includesElement__lattice_constant": [4.51, 3.89, 2.85], "includesElement__mendeleev_number": [96, 68, 20], "includesElement__molar_heat_capacity": [25.23, 25.98, 27.665], "includesElement__period": [5, 7], "includesElement__pettifor_number": [88, 69, 45], "includesElement__specific_heat_capacity": [0.207, 0.246, 0.116], "includesElement__vdw_radius": [206.0, 210.0, 241.0], "includesElement__vdw_radius_alvarez": [247.0, 215.0, 271.0], "includesElement__vdw_radius_mm3": [252.0, 237.0], "includesElement__vdw_radius_uff": [442.0, 289.9, 339.5], "includesElement__abundance_sea": [0.00024, 0.0032], "includesElement__atomic_weight_uncertainty": [0.001, 0.01, 3e-05], "includesElement__c6_gb": [504.0, 628.0], "includesElement__covalent_radius_bragg": [140.0], "includesElement__electronegativity_allen": [11.74, 9.402], "includesElement__en_allen": [11.74, 9.402], "includesElement__metallic_radius": [139.0, 128.0], "includesElement__metallic_radius_c12": [166.0, 137.0], "includesElement__thermal_conductivity": [24.43, 71.8, 27.5], "includesElement__vdw_radius_batsanov": [220.0, 205.0, 230.0], "includesElement__c6": [492.0], "includesElement__vdw_radius_dreiding": [435.0], "includesElement__vdw_radius_truhlar": [206.0], "includesElement__discovery_year": [1803, 1789], "includesElement__gas_basicity": [673.4, 973.2], "includesElement__proton_affinity": [696.0, 995.2], "formula": ["Pd2Sb4U2"], "spacegroup": ["129"], "thermalConductivity": [2.73859], "icsd": ["50348"], "band_gap": [0.0], "density": [10.32128], "density_atomic": [23.64885], "deprecated": [false], "efermi": [9.295957], "energy_above_hull": [0.0], "energy_per_atom": [-39.21871], "formation_energy_per_atom": [-0.6399276], "is_gap_direct": [false], "is_magnetic": [true], "is_metal": [true], "is_stable": [true], "nelements": [3], "nsites": [8], "num_magnetic_sites": [2], "num_unique_magnetic_sites": [1], "theoretical": [false], "total_magnetization": [4.542717], "total_magnetization_normalized_formula_units": [2.271358], "total_magnetization_normalized_vol": [0.0240113], "uncorrected_energy_per_atom": [-39.21871], "volume": [189.1908], "equilibrium_reaction_energy_per_atom": [-0.0351685]}