{"includesElement": ["", "S", "Fe", "Ta"], "includesElement___series_id": [1, 8], "includesElement__abundance_crust": [350.0, 56300.0, 2.0], "includesElement__atomic_number": [16, 26, 73], "includesElement__atomic_radius": [100.0, 140.0, 145.0], "includesElement__atomic_radius_rahm": [214.0, 237.0, 258.0], "includesElement__atomic_volume": [15.5, 7.1, 10.9], "includesElement__atomic_weight": [32.06, 55.845, 180.9479], "includesElement__covalent_radius_cordero": [105.0, 142.0, 170.0], "includesElement__covalent_radius_pyykko": [103.0, 116.0, 146.0], "includesElement__covalent_radius_pyykko_double": [94.0, 109.0, 126.0], "includesElement__covalent_radius_pyykko_triple": [95.0, 102.0, 119.0], "includesElement__density": [2.07, 7.87, 16.4], "includesElement__dipole_polarizability": [19.4, 62.0, 74.0], "includesElement__dipole_polarizability_unc": [0.1, 4.0, 20.0], "includesElement__electron_affinity": [2.077104, 0.151, 0.322], "includesElement__electronegativity_allred-rochow": [0.0005137148, 0.0002786861, 0.0001548133], "includesElement__electronegativity_cottrell-sutton": [0.2300274, 0.1797987, 0.1503421], "includesElement__electronegativity_ghosh": [0.23596, 0.1392532, 0.234581], "includesElement__electronegativity_gordy": [0.05291262, 0.03232759, 0.02260274], "includesElement__electronegativity_mulliken": [6.218557, 4.026734, 3.935785], "includesElement__electronegativity_nagle": [0.6762644, 0.5053195, 0.4072985], "includesElement__electronegativity_pauling": [2.58, 1.83, 1.5], "includesElement__electronegativity_sanderson": [0.6397251, 0.748727, 0.8358832], "includesElement__en_ghosh": [0.23596, 0.1392532, 0.234581], "includesElement__en_pauling": [2.58, 1.83, 1.5], "includesElement__evaporation_heat": [10.5, 340.0, 758.0], "includesElement__fusion_heat": [1.23, 13.8, 24.7], "includesElement__glawe_number": [96, 71, 52], "includesElement__group_id": [16, 8, 5], "includesElement__heat_of_formation": [277.17, 415.5, 782.0], "includesElement__is_radioactive": [false], "includesElement__lattice_constant": [10.47, 2.87, 3.31], "includesElement__mendeleev_number": [100, 59, 49], "includesElement__molar_heat_capacity": [22.7, 25.1, 25.36], "includesElement__period": [3, 4, 6], "includesElement__pettifor_number": [94, 61, 53], "includesElement__specific_heat_capacity": [0.708, 0.449, 0.14], "includesElement__vdw_radius": [180.0, 204.0, 222.0], "includesElement__vdw_radius_alvarez": [189.0, 244.0, 253.0], "includesElement__vdw_radius_mm3": [215.0, 223.0, 243.0], "includesElement__vdw_radius_uff": [403.5, 291.2, 317.0], "includesElement__abundance_sea": [905.0, 0.002, 2e-06], "includesElement__c6_gb": [140.0, 548.0, 887.0], "includesElement__covalent_radius_bragg": [102.0, 140.0], "includesElement__electronegativity_allen": [15.31, 10.64, 7.93], "includesElement__en_allen": [15.31, 10.64, 7.93], "includesElement__metallic_radius": [104.0, 117.0, 134.0], "includesElement__metallic_radius_c12": [127.0, 126.0, 146.0], "includesElement__thermal_conductivity": [0.27, 80.4, 57.5], "includesElement__vdw_radius_batsanov": [180.0, 205.0, 220.0], "includesElement__c6": [134.0, 482.0], "includesElement__vdw_radius_dreiding": [403.0], "includesElement__gas_basicity": [640.2, 731.1], "includesElement__proton_affinity": [664.3, 754.0], "includesElement__vdw_radius_bondi": [180.0], "includesElement__vdw_radius_rt": [181.0], "includesElement__atomic_weight_uncertainty": [0.002, 2e-05], "includesElement__discovery_year": [1802], "formula": ["Fe2S6Ta9"], "spacegroup": ["189"], "thermalConductivity": [4.48893], "icsd": ["61415"], "band_gap": [0.0], "density": [10.71], "density_atomic": [17.62605], "deprecated": [false], "efermi": [5.850119], "energy_above_hull": [0.01992751], "energy_per_atom": [-9.638272], "formation_energy_per_atom": [-0.8987101], "is_gap_direct": [false], "is_magnetic": [false], "is_metal": [true], "is_stable": [false], "nelements": [3], "nsites": [17], "num_magnetic_sites": [0], "num_unique_magnetic_sites": [0], "theoretical": [false], "total_magnetization": [1.6e-06], "total_magnetization_normalized_formula_units": [1.6e-06], "total_magnetization_normalized_vol": [5.33969e-09], "uncorrected_energy_per_atom": [-9.460742], "volume": [299.6429]}