{"includesElement": ["", "Ni", "Sn", "U"], "includesElement___series_id": [8, 7, 10], "includesElement__abundance_crust": [84.0, 2.3, 2.7], "includesElement__atomic_number": [28, 50, 92], "includesElement__atomic_radius": [135.0, 145.0, 175.0], "includesElement__atomic_radius_rahm": [229.0, 248.0, 283.0], "includesElement__atomic_volume": [6.6, 16.3, 12.5], "includesElement__atomic_weight": [58.6934, 118.71, 238.0289], "includesElement__covalent_radius_cordero": [124.0, 139.0, 196.0], "includesElement__covalent_radius_pyykko": [110.0, 140.0, 170.0], "includesElement__covalent_radius_pyykko_double": [101.0, 130.0, 134.0], "includesElement__covalent_radius_pyykko_triple": [101.0, 132.0, 118.0], "includesElement__density": [8.9, 7.287, 19.1], "includesElement__dipole_polarizability": [49.0, 53.0, 129.0], "includesElement__dipole_polarizability_unc": [3.0, 6.0, 17.0], "includesElement__discovery_year": [1751, 1789], "includesElement__electron_affinity": [1.156, 1.112067], "includesElement__electronegativity_allred-rochow": [0.0003347107, 0.0002882653, 0.0001038062], "includesElement__electronegativity_cottrell-sutton": [0.1918806, 0.2008909, 0.1328422], "includesElement__electronegativity_ghosh": [0.1472068, 0.178052, 0.13207], "includesElement__electronegativity_gordy": [0.03681818, 0.04035714, 0.01764706], "includesElement__electronegativity_mulliken": [4.397939, 4.227992, 3.097025], "includesElement__electronegativity_nagle": [0.588755, 0.4225986, 0.3596283], "includesElement__electronegativity_pauling": [1.91, 1.96, 1.7], "includesElement__electronegativity_sanderson": [0.937704, 0.7622797, 0.618118], "includesElement__en_ghosh": [0.1472068, 0.178052, 0.13207], "includesElement__en_pauling": [1.91, 1.96, 1.7], "includesElement__evaporation_heat": [378.6, 296.0, 417.0], "includesElement__fusion_heat": [17.61, 7.07, 12.6], "includesElement__glawe_number": [69, 83, 36], "includesElement__group_id": [10, 14], "includesElement__heat_of_formation": [430.1, 301.2, 533.0], "includesElement__is_radioactive": [false, true], "includesElement__lattice_constant": [3.52, 5.82, 2.85], "includesElement__mendeleev_number": [67, 90, 20], "includesElement__molar_heat_capacity": [26.07, 26.99, 27.665], "includesElement__period": [4, 5, 7], "includesElement__pettifor_number": [67, 83, 45], "includesElement__specific_heat_capacity": [0.444, 0.227, 0.116], "includesElement__vdw_radius": [197.0, 217.0, 241.0], "includesElement__vdw_radius_alvarez": [240.0, 242.0, 271.0], "includesElement__vdw_radius_mm3": [222.0, 259.0, 252.0], "includesElement__vdw_radius_uff": [283.4, 439.2, 339.5], "includesElement__abundance_sea": [0.00056, 4e-06, 0.0032], "includesElement__atomic_weight_uncertainty": [0.0004, 0.007, 3e-05], "includesElement__c6_gb": [393.0, 715.0], "includesElement__covalent_radius_bragg": [135.0, 140.0], "includesElement__electronegativity_allen": [11.13, 10.79], "includesElement__en_allen": [11.13, 10.79], "includesElement__metallic_radius": [115.0, 142.0], "includesElement__metallic_radius_c12": [124.0, 163.0], "includesElement__thermal_conductivity": [90.9, 66.8, 27.5], "includesElement__vdw_radius_batsanov": [200.0, 225.0, 230.0], "includesElement__c6": [373.0, 659.0], "includesElement__gas_basicity": [714.1, 973.2], "includesElement__proton_affinity": [737.0, 995.2], "includesElement__vdw_radius_dreiding": [447.0], "includesElement__vdw_radius_bondi": [217.0], "formula": ["Ni1Sn1U1", "UNiSn"], "mp_id": ["21425"], "spacegroup": ["216"], "thermalConductivity": [2.47439, 5.36], "icsd": ["105372"], "band_gap": [0.0129], "density": [10.52946], "density_atomic": [21.83847], "deprecated": [false], "efermi": [9.488417], "energy_above_hull": [0.12871], "energy_per_atom": [-7.124165], "formation_energy_per_atom": [-0.09712522], "homogeneous_poisson": [0.308], "is_gap_direct": [false], "is_magnetic": [true], "is_metal": [false], "is_stable": [false], "nelements": [3], "nsites": [3], "num_magnetic_sites": [2], "num_unique_magnetic_sites": [2], "theoretical": [false], "total_magnetization": [2.0], "total_magnetization_normalized_formula_units": [2.0], "total_magnetization_normalized_vol": [0.03052718], "uncorrected_energy_per_atom": [-39.19689], "universal_anisotropy": [0.783], "volume": [65.5154], "cbm": [9.4912], "vbm": [9.4783]}