{"includesElement": ["", "Th", "In"], "includesElement___series_id": [10, 7], "includesElement__abundance_crust": [9.6, 0.25], "includesElement__atomic_number": [90, 49], "includesElement__atomic_radius": [180.0, 155.0], "includesElement__atomic_radius_rahm": [288.0, 246.0], "includesElement__atomic_volume": [19.8, 15.7], "includesElement__atomic_weight": [232.0377, 114.818], "includesElement__covalent_radius_cordero": [206.0, 142.0], "includesElement__covalent_radius_pyykko": [175.0, 142.0], "includesElement__covalent_radius_pyykko_double": [143.0, 136.0], "includesElement__covalent_radius_pyykko_triple": [136.0, 146.0], "includesElement__density": [11.7, 7.31], "includesElement__dipole_polarizability": [217.0, 65.0], "includesElement__dipole_polarizability_unc": [54.0, 4.0], "includesElement__discovery_year": [1828, 1863], "includesElement__electronegativity_allred-rochow": [0.0001028571, 0.0002479667], "includesElement__electronegativity_cottrell-sutton": [0.1341641, 0.1876467], "includesElement__electronegativity_ghosh": [0.10277, 0.16423], "includesElement__electronegativity_gordy": [0.018, 0.03521127], "includesElement__electronegativity_mulliken": [3.15335, 3.043178], "includesElement__electronegativity_nagle": [0.2641598, 0.3587038], "includesElement__electronegativity_pauling": [1.3, 1.78], "includesElement__electronegativity_sanderson": [0.5557019, 0.7172747], "includesElement__en_ghosh": [0.10277, 0.16423], "includesElement__en_pauling": [1.3, 1.78], "includesElement__evaporation_heat": [513.7, 225.1], "includesElement__fusion_heat": [16.11, 3.24], "includesElement__glawe_number": [34, 80], "includesElement__heat_of_formation": [602.0, 243.0], "includesElement__is_radioactive": [true, false], "includesElement__lattice_constant": [5.08, 4.59], "includesElement__mendeleev_number": [16, 84], "includesElement__molar_heat_capacity": [27.32, 26.74], "includesElement__period": [7, 5], "includesElement__pettifor_number": [47, 79], "includesElement__specific_heat_capacity": [0.118, 0.233], "includesElement__vdw_radius": [245.0, 193.0], "includesElement__vdw_radius_alvarez": [293.0, 243.0], "includesElement__vdw_radius_mm3": [274.0, 264.0], "includesElement__vdw_radius_uff": [339.6, 446.3], "includesElement__abundance_sea": [1e-06, 0.02], "includesElement__atomic_weight_uncertainty": [0.0004, 0.001], "includesElement__vdw_radius_batsanov": [240.0, 220.0], "includesElement__electron_affinity": [0.3], "includesElement__group_id": [13], "includesElement__c6_gb": [643.0], "includesElement__electronegativity_allen": [9.793], "includesElement__en_allen": [9.793], "includesElement__metallic_radius": [142.0], "includesElement__metallic_radius_c12": [158.0], "includesElement__thermal_conductivity": [81.8], "includesElement__c6": [779.0], "includesElement__vdw_radius_dreiding": [459.0], "includesElement__vdw_radius_bondi": [193.0], "formula": ["In2Th4"], "spacegroup": ["140"], "thermalConductivity": [2.32997], "icsd": ["102814"], "band_gap": [0.0], "density": [10.37859], "density_atomic": [30.8737], "deprecated": [false], "efermi": [7.349715], "energy_above_hull": [0.0], "energy_per_atom": [-56.78963], "formation_energy_per_atom": [-0.2799282], "is_gap_direct": [false], "is_magnetic": [false], "is_metal": [true], "is_stable": [true], "nelements": [2], "nsites": [6], "num_magnetic_sites": [0], "num_unique_magnetic_sites": [0], "theoretical": [false], "total_magnetization": [2e-07], "total_magnetization_normalized_formula_units": [1e-07], "total_magnetization_normalized_vol": [1.079668e-09], "uncorrected_energy_per_atom": [-56.78963], "volume": [185.2422], "equilibrium_reaction_energy_per_atom": [-0.001872322]}