{"includesElement": ["", "Li", "Rh", "B"], "includesElement___series_id": [3, 8, 5], "includesElement__abundance_crust": [20.0, 0.001, 10.0], "includesElement__atomic_number": [3, 45, 5], "includesElement__atomic_radius": [145.0, 135.0, 85.0], "includesElement__atomic_radius_rahm": [220.0, 233.0, 205.0], "includesElement__atomic_volume": [13.1, 8.3, 4.6], "includesElement__atomic_weight": [6.94, 102.9055, 10.81], "includesElement__covalent_radius_cordero": [128.0, 142.0, 84.0], "includesElement__covalent_radius_pyykko": [133.0, 125.0, 85.0], "includesElement__covalent_radius_pyykko_double": [124.0, 110.0, 78.0], "includesElement__density": [0.534, 12.4, 2.34], "includesElement__dipole_polarizability": [164.1125, 66.0, 20.5], "includesElement__dipole_polarizability_unc": [0.0005, 10.0, 0.1], "includesElement__discovery_year": [1817, 1803, 1808], "includesElement__electron_affinity": [0.618049, 1.137, 0.279723], "includesElement__electronegativity_allred-rochow": [7.3492e-05, 0.0002176, 0.0003598616], "includesElement__electronegativity_cottrell-sutton": [0.09886575, 0.1649242, 0.1748949], "includesElement__electronegativity_ghosh": [0.105093, 0.1408379, 0.184886], "includesElement__electronegativity_gordy": [0.009774436, 0.0272, 0.03058824], "includesElement__electronegativity_mulliken": [3.004882, 4.29795, 4.288871], "includesElement__electronegativity_nagle": [0.1826499, 0.5147142, 0.5269739], "includesElement__electronegativity_pauling": [0.98, 2.28, 2.04], "includesElement__electronegativity_sanderson": [0.04886793, 0.9761915, 0.2546274], "includesElement__en_ghosh": [0.105093, 0.1408379, 0.184886], "includesElement__en_pauling": [0.98, 2.28, 2.04], "includesElement__evaporation_heat": [148.0, 494.0, 504.5], "includesElement__fusion_heat": [2.89, 21.8, 23.6], "includesElement__glawe_number": [12, 63, 86], "includesElement__group_id": [1, 9, 13], "includesElement__heat_of_formation": [159.3, 556.0, 565.0], "includesElement__is_radioactive": [false], "includesElement__lattice_constant": [3.49, 3.8, 8.73], "includesElement__mendeleev_number": [1, 64, 81], "includesElement__molar_heat_capacity": [24.86, 24.98, 11.087], "includesElement__period": [2, 5], "includesElement__pettifor_number": [12, 66, 86], "includesElement__specific_heat_capacity": [3.582, 0.243, 1.026], "includesElement__vdw_radius": [182.0, 210.0, 192.0], "includesElement__vdw_radius_alvarez": [212.0, 244.0, 191.0], "includesElement__vdw_radius_mm3": [255.0, 234.0, 215.0], "includesElement__vdw_radius_uff": [245.1, 292.9, 408.3], "includesElement__abundance_sea": [0.18, 4.44], "includesElement__c6_gb": [1410.0, 708.0, 99.2], "includesElement__covalent_radius_bragg": [150.0], "includesElement__electronegativity_allen": [5.392, 9.259, 12.13], "includesElement__en_allen": [5.392, 9.259, 12.13], "includesElement__metallic_radius": [123.0, 125.0, 80.0], "includesElement__metallic_radius_c12": [155.0, 134.0, 98.0], "includesElement__thermal_conductivity": [84.8, 150.0, 27.4], "includesElement__vdw_radius_batsanov": [220.0, 200.0, 180.0], "includesElement__c6": [1392.0, 99.5], "includesElement__vdw_radius_bondi": [181.0], "includesElement__covalent_radius_pyykko_triple": [106.0, 73.0], "includesElement__atomic_weight_uncertainty": [2e-05], "includesElement__is_monoisotopic": [true], "includesElement__gas_basicity": [745.4], "includesElement__proton_affinity": [768.0], "includesElement__vdw_radius_dreiding": [402.0], "includesElement__vdw_radius_truhlar": [192.0], "formula": ["B4Li4Rh6"], "spacegroup": ["55"], "thermalConductivity": [5.78428], "icsd": ["417442"], "band_gap": [0.0], "density": [7.422519], "density_atomic": [11.00111], "deprecated": [false], "efermi": [5.141405], "energy_above_hull": [0.0], "energy_per_atom": [-13.66251], "formation_energy_per_atom": [-0.5375369], "is_gap_direct": [false], "is_magnetic": [false], "is_metal": [true], "is_stable": [true], "nelements": [3], "nsites": [14], "num_magnetic_sites": [0], "num_unique_magnetic_sites": [0], "theoretical": [false], "total_magnetization": [2e-07], "total_magnetization_normalized_formula_units": [1e-07], "total_magnetization_normalized_vol": [1.29857e-09], "uncorrected_energy_per_atom": [-13.66251], "volume": [154.0155], "equilibrium_reaction_energy_per_atom": [-0.2392179]}