{"includesElement": ["", "Sn", "Y", "Au"], "includesElement___series_id": [7, 8], "includesElement__abundance_crust": [2.3, 33.0, 0.004], "includesElement__atomic_number": [50, 39, 79], "includesElement__atomic_radius": [145.0, 180.0, 135.0], "includesElement__atomic_radius_rahm": [248.0, 274.0, 226.0], "includesElement__atomic_volume": [16.3, 19.8, 10.2], "includesElement__atomic_weight": [118.71, 88.90584, 196.9666], "includesElement__covalent_radius_cordero": [139.0, 190.0, 136.0], "includesElement__covalent_radius_pyykko": [140.0, 163.0, 124.0], "includesElement__covalent_radius_pyykko_double": [130.0, 121.0], "includesElement__covalent_radius_pyykko_triple": [132.0, 124.0, 123.0], "includesElement__density": [7.287, 4.47, 19.3], "includesElement__dipole_polarizability": [53.0, 162.0, 36.0], "includesElement__dipole_polarizability_unc": [6.0, 12.0, 3.0], "includesElement__electron_affinity": [1.112067, 0.307, 2.30863], "includesElement__electronegativity_allred-rochow": [0.0002882653, 0.0001129135, 0.0002406348], "includesElement__electronegativity_cottrell-sutton": [0.2008909, 0.1356647, 0.1727388], "includesElement__electronegativity_ghosh": [0.178052, 0.1216986, 0.26137], "includesElement__electronegativity_gordy": [0.04035714, 0.01840491, 0.02983871], "includesElement__electronegativity_mulliken": [4.227992, 3.26213, 5.767091], "includesElement__electronegativity_nagle": [0.4225986, 0.2645668, 0.67354], "includesElement__electronegativity_pauling": [1.96, 1.22, 2.4], "includesElement__electronegativity_sanderson": [0.7622797, 0.3923941, 1.426701], "includesElement__en_ghosh": [0.178052, 0.1216986, 0.26137], "includesElement__en_pauling": [1.96, 1.22, 2.4], "includesElement__evaporation_heat": [296.0, 367.0, 340.0], "includesElement__fusion_heat": [7.07, 11.5, 12.68], "includesElement__glawe_number": [83, 21, 66], "includesElement__group_id": [14, 3, 11], "includesElement__heat_of_formation": [301.2, 424.7, 368.2], "includesElement__is_radioactive": [false], "includesElement__lattice_constant": [5.82, 3.65, 4.08], "includesElement__mendeleev_number": [90, 12, 73], "includesElement__molar_heat_capacity": [26.99, 26.53, 25.418], "includesElement__period": [5, 6], "includesElement__pettifor_number": [83, 19, 70], "includesElement__specific_heat_capacity": [0.227, 0.298, 0.129], "includesElement__vdw_radius": [217.0, 232.0, 214.0], "includesElement__vdw_radius_alvarez": [242.0, 275.0, 232.0], "includesElement__vdw_radius_mm3": [259.0, 271.0, 243.0], "includesElement__vdw_radius_uff": [439.2, 334.5, 329.3], "includesElement__abundance_sea": [4e-06, 1.3e-05], "includesElement__atomic_weight_uncertainty": [0.007, 2e-05, 5e-06], "includesElement__c6_gb": [715.0, 2600.0, 427.0], "includesElement__covalent_radius_bragg": [140.0], "includesElement__electronegativity_allen": [10.79, 6.631, 11.33], "includesElement__en_allen": [10.79, 6.631, 11.33], "includesElement__metallic_radius": [142.0, 162.0, 134.0], "includesElement__metallic_radius_c12": [163.0, 180.0, 144.0], "includesElement__thermal_conductivity": [66.8, 318.0], "includesElement__vdw_radius_batsanov": [225.0, 240.0, 210.0], "includesElement__c6": [659.0], "includesElement__vdw_radius_dreiding": [447.0], "includesElement__vdw_radius_bondi": [217.0], "includesElement__discovery_year": [1789], "includesElement__is_monoisotopic": [true], "includesElement__gas_basicity": [945.9], "includesElement__proton_affinity": [967.0], "formula": ["Au2Sn2Y2"], "spacegroup": ["186"], "thermalConductivity": [3.02233], "icsd": ["415826"], "band_gap": [0.0], "density": [9.511818], "density_atomic": [23.54352], "deprecated": [false], "efermi": [6.563159], "energy_above_hull": [0.0], "energy_per_atom": [-5.414104], "formation_energy_per_atom": [-0.8165893], "homogeneous_poisson": [0.269], "is_gap_direct": [false], "is_magnetic": [false], "is_metal": [true], "is_stable": [true], "nelements": [3], "nsites": [6], "num_magnetic_sites": [0], "num_unique_magnetic_sites": [0], "theoretical": [false], "total_magnetization": [1e-07], "total_magnetization_normalized_formula_units": [5e-08], "total_magnetization_normalized_vol": [7.07909e-10], "uncorrected_energy_per_atom": [-32.80193], "universal_anisotropy": [0.204], "volume": [141.2611], "equilibrium_reaction_energy_per_atom": [-0.09499309]}