{"includesElement": ["", "Be", "Ce"], "includesElement___series_id": [4, 9], "includesElement__abundance_crust": [2.8, 66.5], "includesElement__atomic_number": [4, 58], "includesElement__atomic_radius": [105.0, 185.0], "includesElement__atomic_radius_rahm": [219.0, 282.0], "includesElement__atomic_volume": [5.0, 21.0], "includesElement__atomic_weight": [9.012183, 140.116], "includesElement__covalent_radius_cordero": [96.0, 204.0], "includesElement__covalent_radius_pyykko": [102.0, 163.0], "includesElement__covalent_radius_pyykko_double": [90.0, 137.0], "includesElement__covalent_radius_pyykko_triple": [85.0, 131.0], "includesElement__density": [1.85, 6.77], "includesElement__dipole_polarizability": [37.74, 205.0], "includesElement__dipole_polarizability_unc": [0.03, 20.0], "includesElement__discovery_year": [1798, 1803], "includesElement__electron_affinity": [-2.4, 0.65], "includesElement__electronegativity_allred-rochow": [0.0001874279, 0.0001129135], "includesElement__electronegativity_cottrell-sutton": [0.1382666, 0.1356647], "includesElement__electronegativity_ghosh": [0.144986, 0.16761], "includesElement__electronegativity_gordy": [0.01911765, 0.01840491], "includesElement__electronegativity_mulliken": [3.461349, 3.0943], "includesElement__electronegativity_nagle": [0.3756148, 0.2692167], "includesElement__electronegativity_pauling": [1.57, 1.12], "includesElement__electronegativity_sanderson": [0.1268473, 0.5356179], "includesElement__en_ghosh": [0.144986, 0.16761], "includesElement__en_pauling": [1.57, 1.12], "includesElement__evaporation_heat": [309.0, 398.0], "includesElement__fusion_heat": [12.21, 5.2], "includesElement__glawe_number": [77, 31], "includesElement__group_id": [2], "includesElement__heat_of_formation": [324.0, 420.1], "includesElement__is_radioactive": [false], "includesElement__lattice_constant": [2.29, 5.16], "includesElement__mendeleev_number": [75, 15], "includesElement__molar_heat_capacity": [16.443, 26.94], "includesElement__period": [2, 6], "includesElement__pettifor_number": [77, 32], "includesElement__specific_heat_capacity": [1.825, 0.192], "includesElement__vdw_radius": [153.0, 242.0], "includesElement__vdw_radius_alvarez": [198.0, 288.0], "includesElement__vdw_radius_mm3": [223.0, 274.0], "includesElement__vdw_radius_uff": [274.5, 355.6], "includesElement__abundance_sea": [5.6e-06, 1.2e-06], "includesElement__atomic_weight_uncertainty": [5e-07, 0.001], "includesElement__c6_gb": [214.0, 3480.0], "includesElement__covalent_radius_bragg": [115.0], "includesElement__electronegativity_allen": [9.323], "includesElement__en_allen": [9.323], "includesElement__metallic_radius": [89.0], "includesElement__metallic_radius_c12": [112.0], "includesElement__thermal_conductivity": [201.0, 11.3], "includesElement__vdw_radius_batsanov": [190.0], "includesElement__c6": [227.0], "includesElement__is_monoisotopic": [true], "includesElement__vdw_radius_truhlar": [153.0], "formula": ["Be26Ce2"], "spacegroup": ["226"], "thermalConductivity": [13.9062], "icsd": ["108099"], "band_gap": [0.0], "density": [3.118554], "density_atomic": [9.78508], "deprecated": [false], "efermi": [5.013867], "energy_above_hull": [0.0], "energy_per_atom": [-4.047457], "formation_energy_per_atom": [-0.1510771], "homogeneous_poisson": [0.251], "is_gap_direct": [false], "is_magnetic": [true], "is_metal": [true], "is_stable": [true], "nelements": [2], "nsites": [28], "num_magnetic_sites": [2], "num_unique_magnetic_sites": [1], "theoretical": [false], "total_magnetization": [1.634619], "total_magnetization_normalized_formula_units": [0.8173094], "total_magnetization_normalized_vol": [0.005966149], "uncorrected_energy_per_atom": [-6.386169], "universal_anisotropy": [-1106.385], "volume": [273.9822], "equilibrium_reaction_energy_per_atom": [-0.1510771]}