{"includesElement": ["", "Si", "Ir", "Ta"], "includesElement___series_id": [5, 8], "includesElement__abundance_crust": [282000.0, 0.001, 2.0], "includesElement__atomic_number": [14, 77, 73], "includesElement__atomic_radius": [110.0, 135.0, 145.0], "includesElement__atomic_radius_rahm": [232.0, 240.0, 258.0], "includesElement__atomic_volume": [12.1, 8.54, 10.9], "includesElement__atomic_weight": [28.085, 192.217, 180.9479], "includesElement__covalent_radius_cordero": [111.0, 141.0, 170.0], "includesElement__covalent_radius_pyykko": [116.0, 122.0, 146.0], "includesElement__covalent_radius_pyykko_double": [107.0, 115.0, 126.0], "includesElement__covalent_radius_pyykko_triple": [102.0, 107.0, 119.0], "includesElement__density": [2.3296, 22.5622, 16.4], "includesElement__dipole_polarizability": [37.3, 54.0, 74.0], "includesElement__dipole_polarizability_unc": [0.7, 7.0, 20.0], "includesElement__discovery_year": [1824, 1804, 1802], "includesElement__electron_affinity": [1.389521, 1.5638, 0.322], "includesElement__electronegativity_allred-rochow": [0.0003084126, 0.0002620263, 0.0001548133], "includesElement__electronegativity_cottrell-sutton": [0.1891451, 0.1787938, 0.1503421], "includesElement__electronegativity_ghosh": [0.178503, 0.25106, 0.234581], "includesElement__electronegativity_gordy": [0.03577586, 0.03196721, 0.02260274], "includesElement__electronegativity_mulliken": [4.770602, 5.26541, 3.935785], "includesElement__electronegativity_nagle": [0.4750986, 0.5503212, 0.4072985], "includesElement__electronegativity_pauling": [1.9, 2.2, 1.5], "includesElement__electronegativity_sanderson": [0.3468158, 1.475998, 0.8358832], "includesElement__en_ghosh": [0.178503, 0.25106, 0.234581], "includesElement__en_pauling": [1.9, 2.2, 1.5], "includesElement__evaporation_heat": [383.0, 604.0, 758.0], "includesElement__fusion_heat": [50.6, 27.61, 24.7], "includesElement__glawe_number": [85, 62, 52], "includesElement__group_id": [14, 9, 5], "includesElement__heat_of_formation": [450.0, 669.0, 782.0], "includesElement__is_radioactive": [false], "includesElement__lattice_constant": [5.43, 3.84, 3.31], "includesElement__mendeleev_number": [88, 65, 49], "includesElement__molar_heat_capacity": [19.99, 25.1, 25.36], "includesElement__period": [3, 6], "includesElement__pettifor_number": [85, 65, 53], "includesElement__specific_heat_capacity": [0.712, 0.131, 0.14], "includesElement__vdw_radius": [210.0, 213.0, 222.0], "includesElement__vdw_radius_alvarez": [219.0, 241.0, 253.0], "includesElement__vdw_radius_mm3": [229.0, 236.0, 243.0], "includesElement__vdw_radius_uff": [429.5, 284.0, 317.0], "includesElement__abundance_sea": [2.2, 2e-06], "includesElement__c6_gb": [308.0, 522.0, 887.0], "includesElement__covalent_radius_bragg": [117.0], "includesElement__electronegativity_allen": [11.33, 9.96, 7.93], "includesElement__en_allen": [11.33, 9.96, 7.93], "includesElement__metallic_radius": [117.0, 127.0, 134.0], "includesElement__metallic_radius_c12": [138.0, 136.0, 146.0], "includesElement__thermal_conductivity": [149.0, 147.0, 57.5], "includesElement__vdw_radius_batsanov": [210.0, 200.0, 220.0], "includesElement__c6": [305.0], "includesElement__vdw_radius_dreiding": [427.0], "includesElement__gas_basicity": [814.1], "includesElement__proton_affinity": [837.0], "includesElement__vdw_radius_bondi": [210.0], "includesElement__atomic_weight_uncertainty": [0.003, 2e-05], "formula": ["Ir4Si4Ta4"], "spacegroup": ["62"], "thermalConductivity": [8.97583], "icsd": ["411884"], "band_gap": [0.0], "density": [15.08733], "density_atomic": [14.72079], "deprecated": [false], "efermi": [9.011249], "energy_above_hull": [0.0], "energy_per_atom": [-37.4542], "formation_energy_per_atom": [-0.8792209], "homogeneous_poisson": [0.291], "is_gap_direct": [false], "is_magnetic": [false], "is_metal": [true], "is_stable": [true], "nelements": [3], "nsites": [12], "num_magnetic_sites": [0], "num_unique_magnetic_sites": [0], "theoretical": [false], "total_magnetization": [0.0], "total_magnetization_normalized_formula_units": [0.0], "total_magnetization_normalized_vol": [0.0], "uncorrected_energy_per_atom": [-37.4542], "universal_anisotropy": [0.191], "volume": [176.6494], "equilibrium_reaction_energy_per_atom": [-0.1727003]}