{"includesElement": ["", "Mg", "Li", "In"], "includesElement___series_id": [4, 3, 7], "includesElement__abundance_crust": [23300.0, 20.0, 0.25], "includesElement__atomic_number": [12, 3, 49], "includesElement__atomic_radius": [150.0, 145.0, 155.0], "includesElement__atomic_radius_rahm": [240.0, 220.0, 246.0], "includesElement__atomic_volume": [14.0, 13.1, 15.7], "includesElement__atomic_weight": [24.305, 6.94, 114.818], "includesElement__covalent_radius_cordero": [141.0, 128.0, 142.0], "includesElement__covalent_radius_pyykko": [139.0, 133.0, 142.0], "includesElement__covalent_radius_pyykko_double": [132.0, 124.0, 136.0], "includesElement__covalent_radius_pyykko_triple": [127.0, 146.0], "includesElement__density": [1.74, 0.534, 7.31], "includesElement__dipole_polarizability": [71.2, 164.1125, 65.0], "includesElement__dipole_polarizability_unc": [0.4, 0.0005, 4.0], "includesElement__discovery_year": [1808, 1817, 1863], "includesElement__electronegativity_allred-rochow": [0.0001475079, 7.3492e-05, 0.0002479667], "includesElement__electronegativity_cottrell-sutton": [0.1431908, 0.09886575, 0.1876467], "includesElement__electronegativity_ghosh": [0.121644, 0.105093, 0.16423], "includesElement__electronegativity_gordy": [0.0205036, 0.009774436, 0.03521127], "includesElement__electronegativity_mulliken": [3.823117, 3.004882, 3.043178], "includesElement__electronegativity_nagle": [0.3039835, 0.1826499, 0.3587038], "includesElement__electronegativity_pauling": [1.31, 0.98, 1.78], "includesElement__electronegativity_sanderson": [0.1524211, 0.04886793, 0.7172747], "includesElement__en_ghosh": [0.121644, 0.105093, 0.16423], "includesElement__en_pauling": [1.31, 0.98, 1.78], "includesElement__evaporation_heat": [131.8, 148.0, 225.1], "includesElement__fusion_heat": [9.2, 2.89, 3.24], "includesElement__glawe_number": [73, 12, 80], "includesElement__group_id": [2, 1, 13], "includesElement__heat_of_formation": [147.1, 159.3, 243.0], "includesElement__is_radioactive": [false], "includesElement__lattice_constant": [3.21, 3.49, 4.59], "includesElement__mendeleev_number": [76, 1, 84], "includesElement__molar_heat_capacity": [24.869, 24.86, 26.74], "includesElement__period": [3, 2, 5], "includesElement__pettifor_number": [73, 12, 79], "includesElement__specific_heat_capacity": [1.023, 3.582, 0.233], "includesElement__vdw_radius": [173.0, 182.0, 193.0], "includesElement__vdw_radius_alvarez": [251.0, 212.0, 243.0], "includesElement__vdw_radius_mm3": [243.0, 255.0, 264.0], "includesElement__vdw_radius_uff": [302.1, 245.1, 446.3], "includesElement__abundance_sea": [1290.0, 0.18, 0.02], "includesElement__c6_gb": [629.0, 1410.0, 643.0], "includesElement__covalent_radius_bragg": [142.0, 150.0], "includesElement__electronegativity_allen": [7.646, 5.392, 9.793], "includesElement__en_allen": [7.646, 5.392, 9.793], "includesElement__metallic_radius": [136.0, 123.0, 142.0], "includesElement__metallic_radius_c12": [160.0, 155.0, 158.0], "includesElement__thermal_conductivity": [156.0, 84.8, 81.8], "includesElement__vdw_radius_batsanov": [220.0], "includesElement__c6": [626.0, 1392.0, 779.0], "includesElement__gas_basicity": [797.3], "includesElement__proton_affinity": [819.6], "includesElement__vdw_radius_bondi": [173.0, 181.0, 193.0], "includesElement__electron_affinity": [0.618049, 0.3], "includesElement__atomic_weight_uncertainty": [0.001], "includesElement__vdw_radius_dreiding": [459.0], "formula": ["In1Li2Mg1"], "spacegroup": ["225"], "thermalConductivity": [3.02073], "icsd": ["51965"], "band_gap": [0.0], "density": [3.473854], "density_atomic": [18.28451], "deprecated": [false], "efermi": [4.450511], "energy_above_hull": [0.0], "energy_per_atom": [-2.268217], "formation_energy_per_atom": [-0.2163446], "homogeneous_poisson": [0.216], "is_gap_direct": [false], "is_magnetic": [false], "is_metal": [true], "is_stable": [true], "nelements": [3], "nsites": [4], "num_magnetic_sites": [0], "num_unique_magnetic_sites": [0], "theoretical": [false], "total_magnetization": [5e-07], "total_magnetization_normalized_formula_units": [5e-07], "total_magnetization_normalized_vol": [6.836389e-09], "uncorrected_energy_per_atom": [-8.161195], "universal_anisotropy": [3.86], "volume": [73.13802], "equilibrium_reaction_energy_per_atom": [-0.002559865]}