{"includesElement": ["", "N", "Th", "Ta"], "includesElement___series_id": [1, 10, 8], "includesElement__abundance_crust": [19.0, 9.6, 2.0], "includesElement__atomic_number": [7, 90, 73], "includesElement__atomic_radius": [65.0, 180.0, 145.0], "includesElement__atomic_radius_rahm": [179.0, 288.0, 258.0], "includesElement__atomic_volume": [17.3, 19.8, 10.9], "includesElement__atomic_weight": [14.007, 232.0377, 180.9479], "includesElement__covalent_radius_cordero": [71.0, 206.0, 170.0], "includesElement__covalent_radius_pyykko": [71.0, 175.0, 146.0], "includesElement__covalent_radius_pyykko_double": [60.0, 143.0, 126.0], "includesElement__covalent_radius_pyykko_triple": [54.0, 136.0, 119.0], "includesElement__density": [0.001145, 11.7, 16.4], "includesElement__dipole_polarizability": [7.4, 217.0, 74.0], "includesElement__dipole_polarizability_unc": [0.2, 54.0, 20.0], "includesElement__discovery_year": [1772, 1828, 1802], "includesElement__electron_affinity": [-1.4, 0.322], "includesElement__electronegativity_allred-rochow": [0.000773656, 0.0001028571, 0.0001548133], "includesElement__electronegativity_cottrell-sutton": [0.2343706, 0.1341641, 0.1503421], "includesElement__electronegativity_ghosh": [0.26493, 0.10277, 0.234581], "includesElement__electronegativity_gordy": [0.05492958, 0.018, 0.02260274], "includesElement__electronegativity_mulliken": [6.567065, 3.15335, 3.935785], "includesElement__electronegativity_nagle": [0.8774979, 0.2641598, 0.4072985], "includesElement__electronegativity_pauling": [3.04, 1.3, 1.5], "includesElement__electronegativity_sanderson": [0.577482, 0.5557019, 0.8358832], "includesElement__en_ghosh": [0.26493, 0.10277, 0.234581], "includesElement__en_pauling": [3.04, 1.3, 1.5], "includesElement__glawe_number": [88, 34, 52], "includesElement__group_id": [15, 5], "includesElement__heat_of_formation": [472.44, 602.0, 782.0], "includesElement__is_radioactive": [false, true], "includesElement__lattice_constant": [4.039, 5.08, 3.31], "includesElement__mendeleev_number": [93, 16, 49], "includesElement__molar_heat_capacity": [29.124, 27.32, 25.36], "includesElement__period": [2, 7, 6], "includesElement__pettifor_number": [100, 47, 53], "includesElement__specific_heat_capacity": [1.04, 0.118, 0.14], "includesElement__vdw_radius": [155.0, 245.0, 222.0], "includesElement__vdw_radius_alvarez": [166.0, 293.0, 253.0], "includesElement__vdw_radius_mm3": [193.0, 274.0, 243.0], "includesElement__vdw_radius_uff": [366.0, 339.6, 317.0], "includesElement__abundance_sea": [0.5, 1e-06, 2e-06], "includesElement__c6_gb": [25.7, 887.0], "includesElement__covalent_radius_bragg": [65.0], "includesElement__electronegativity_allen": [18.13, 7.93], "includesElement__en_allen": [18.13, 7.93], "includesElement__metallic_radius_c12": [53.0, 146.0], "includesElement__thermal_conductivity": [0.026, 57.5], "includesElement__vdw_radius_batsanov": [160.0, 240.0, 220.0], "includesElement__c6": [24.2], "includesElement__vdw_radius_dreiding": [366.21], "includesElement__gas_basicity": [318.7], "includesElement__proton_affinity": [342.2], "includesElement__vdw_radius_bondi": [155.0], "includesElement__vdw_radius_rt": [164.0], "includesElement__evaporation_heat": [513.7, 758.0], "includesElement__fusion_heat": [16.11, 24.7], "includesElement__atomic_weight_uncertainty": [0.0004, 2e-05], "includesElement__metallic_radius": [134.0], "formula": ["N3Ta1Th1"], "spacegroup": ["221"], "thermalConductivity": [20.6636], "icsd": ["247345"], "band_gap": [0.0766], "density": [11.25292], "density_atomic": [13.42861], "deprecated": [false], "efermi": [7.206294], "energy_above_hull": [0.2313085], "energy_per_atom": [-31.39824], "formation_energy_per_atom": [-1.507574], "homogeneous_poisson": [0.263], "is_gap_direct": [true], "is_magnetic": [false], "is_metal": [false], "is_stable": [false], "nelements": [3], "nsites": [5], "num_magnetic_sites": [0], "num_unique_magnetic_sites": [0], "theoretical": [false], "total_magnetization": [0.000214], "total_magnetization_normalized_formula_units": [0.000214], "total_magnetization_normalized_vol": [3.187224e-06], "uncorrected_energy_per_atom": [-10.0872], "universal_anisotropy": [0.367], "volume": [67.14307], "cbm": [7.2448], "vbm": [7.1682]}