{"includesElement": ["", "As", "Sc"], "includesElement___series_id": [5, 8], "includesElement__abundance_crust": [1.8, 22.0], "includesElement__atomic_number": [33, 21], "includesElement__atomic_radius": [115.0, 160.0], "includesElement__atomic_radius_rahm": [231.0, 263.0], "includesElement__atomic_volume": [13.1, 15.0], "includesElement__atomic_weight": [74.92159, 44.95591], "includesElement__covalent_radius_cordero": [119.0, 170.0], "includesElement__covalent_radius_pyykko": [121.0, 148.0], "includesElement__covalent_radius_pyykko_double": [114.0, 116.0], "includesElement__covalent_radius_pyykko_triple": [106.0, 114.0], "includesElement__density": [5.75, 2.99], "includesElement__dipole_polarizability": [30.0, 97.0], "includesElement__dipole_polarizability_unc": [1.0, 10.0], "includesElement__electron_affinity": [0.804, 0.188], "includesElement__electronegativity_allred-rochow": [0.0004302985, 0.0001369613], "includesElement__electronegativity_cottrell-sutton": [0.22818, 0.1423737], "includesElement__electronegativity_ghosh": [0.2068208, 0.1193833], "includesElement__electronegativity_gordy": [0.05206612, 0.02027027], "includesElement__electronegativity_mulliken": [5.2965, 3.374745], "includesElement__electronegativity_nagle": [0.5503212, 0.3138941], "includesElement__electronegativity_pauling": [2.18, 1.36], "includesElement__electronegativity_sanderson": [0.8253373, 0.3038674], "includesElement__en_ghosh": [0.2068208, 0.1193833], "includesElement__en_pauling": [2.18, 1.36], "includesElement__evaporation_heat": [32.4, 332.7], "includesElement__glawe_number": [90, 48], "includesElement__group_id": [15, 3], "includesElement__heat_of_formation": [302.5, 377.8], "includesElement__is_radioactive": [false], "includesElement__lattice_constant": [4.13, 3.31], "includesElement__mendeleev_number": [95, 11], "includesElement__molar_heat_capacity": [24.64, 25.52], "includesElement__period": [4], "includesElement__pettifor_number": [89, 20], "includesElement__specific_heat_capacity": [0.329, 0.568], "includesElement__vdw_radius": [185.0, 215.0], "includesElement__vdw_radius_alvarez": [188.0, 258.0], "includesElement__vdw_radius_mm3": [236.0, 261.0], "includesElement__vdw_radius_uff": [423.0, 329.5], "includesElement__abundance_sea": [0.0037, 6e-07], "includesElement__atomic_weight_uncertainty": [6e-06, 5e-06], "includesElement__c6_gb": [260.0, 1570.0], "includesElement__covalent_radius_bragg": [126.0], "includesElement__electronegativity_allen": [13.08, 7.042], "includesElement__en_allen": [13.08, 7.042], "includesElement__metallic_radius": [121.0, 144.0], "includesElement__metallic_radius_c12": [148.0, 162.0], "includesElement__vdw_radius_batsanov": [205.0, 230.0], "includesElement__c6": [246.0, 1383.0], "includesElement__is_monoisotopic": [true], "includesElement__vdw_radius_dreiding": [415.0], "includesElement__vdw_radius_bondi": [185.0], "includesElement__discovery_year": [1879], "includesElement__fusion_heat": [15.8], "includesElement__thermal_conductivity": [15.8], "includesElement__gas_basicity": [892.0], "includesElement__proton_affinity": [914.0], "formula": ["As8Sc12"], "spacegroup": ["62"], "thermalConductivity": [3.52077], "icsd": ["16411"], "band_gap": [0.0], "density": [4.574708], "density_atomic": [20.66902], "deprecated": [false], "efermi": [5.140229], "energy_above_hull": [0.009147193], "energy_per_atom": [-14.02558], "formation_energy_per_atom": [-1.303475], "is_gap_direct": [false], "is_magnetic": [true], "is_metal": [true], "is_stable": [false], "nelements": [2], "nsites": [20], "num_magnetic_sites": [8], "num_unique_magnetic_sites": [3], "theoretical": [false], "total_magnetization": [3.481392], "total_magnetization_normalized_formula_units": [0.870348], "total_magnetization_normalized_vol": [0.008421763], "uncorrected_energy_per_atom": [-14.02558], "volume": [413.3804]}