{"includesElement": ["", "P", "Zr", "Mn"], "includesElement___series_id": [1, 8], "includesElement__abundance_crust": [1050.0, 165.0, 950.0], "includesElement__atomic_number": [15, 40, 25], "includesElement__atomic_radius": [100.0, 155.0, 140.0], "includesElement__atomic_radius_rahm": [223.0, 269.0, 242.0], "includesElement__atomic_volume": [17.0, 14.1, 7.39], "includesElement__atomic_weight": [30.97376, 91.224, 54.93804], "includesElement__covalent_radius_cordero": [107.0, 175.0, 150.0], "includesElement__covalent_radius_pyykko": [111.0, 154.0, 119.0], "includesElement__covalent_radius_pyykko_double": [102.0, 127.0, 105.0], "includesElement__covalent_radius_pyykko_triple": [94.0, 121.0, 103.0], "includesElement__density": [1.823, 6.52, 7.3], "includesElement__dipole_polarizability": [25.0, 112.0, 68.0], "includesElement__dipole_polarizability_unc": [1.0, 13.0, 9.0], "includesElement__discovery_year": [1669, 1789, 1774], "includesElement__electron_affinity": [0.746607, 0.426], "includesElement__electronegativity_allred-rochow": [0.0003895788, 0.0001328217, 0.0002542193], "includesElement__electronegativity_cottrell-sutton": [0.2079501, 0.1430194, 0.1739313], "includesElement__electronegativity_ghosh": [0.206931, 0.1248887, 0.1352844], "includesElement__electronegativity_gordy": [0.04324324, 0.02045455, 0.0302521], "includesElement__electronegativity_mulliken": [5.616646, 3.52995, 3.717009], "includesElement__electronegativity_nagle": [0.5848035, 0.3293169, 0.4686656], "includesElement__electronegativity_pauling": [2.19, 1.33, 1.55], "includesElement__electronegativity_sanderson": [0.4510269, 0.4744467, 0.6707264], "includesElement__en_ghosh": [0.206931, 0.1248887, 0.1352844], "includesElement__en_pauling": [2.19, 1.33, 1.55], "includesElement__evaporation_heat": [49.8, 567.0, 221.0], "includesElement__fusion_heat": [2.51, 19.2, 13.4], "includesElement__glawe_number": [89, 49, 72], "includesElement__group_id": [15, 4, 7], "includesElement__heat_of_formation": [316.5, 610.0, 283.3], "includesElement__is_radioactive": [false], "includesElement__lattice_constant": [7.17, 3.23, 8.89], "includesElement__mendeleev_number": [94, 44, 55], "includesElement__molar_heat_capacity": [23.824, 25.36, 26.32], "includesElement__period": [3, 5, 4], "includesElement__pettifor_number": [90, 49, 60], "includesElement__specific_heat_capacity": [0.769, 0.278, 0.479], "includesElement__vdw_radius": [180.0, 223.0, 205.0], "includesElement__vdw_radius_alvarez": [190.0, 252.0, 245.0], "includesElement__vdw_radius_mm3": [222.0, 254.0, 224.0], "includesElement__vdw_radius_uff": [414.7, 312.4, 296.1], "includesElement__abundance_sea": [0.06, 3e-05, 0.0002], "includesElement__atomic_weight_uncertainty": [5e-09, 0.002, 3e-06], "includesElement__c6_gb": [187.0, 1360.0, 635.0], "includesElement__electronegativity_allen": [13.33, 7.808, 10.34], "includesElement__en_allen": [13.33, 7.808, 10.34], "includesElement__metallic_radius": [110.0, 145.0, 118.0], "includesElement__metallic_radius_c12": [128.0, 160.0, 127.0], "includesElement__vdw_radius_batsanov": [195.0, 230.0, 205.0], "includesElement__c6": [185.0, 552.0], "includesElement__is_monoisotopic": [true], "includesElement__vdw_radius_dreiding": [415.0], "includesElement__gas_basicity": [604.8, 774.4], "includesElement__proton_affinity": [626.8, 797.3], "includesElement__vdw_radius_bondi": [180.0], "includesElement__thermal_conductivity": [22.7], "includesElement__covalent_radius_bragg": [147.0], "formula": ["Mn4P4Zr4"], "spacegroup": ["62"], "thermalConductivity": [8.23614], "icsd": ["76095"], "band_gap": [0.0], "density": [6.621724], "density_atomic": [14.80686], "deprecated": [false], "efermi": [7.251784], "energy_above_hull": [0.0], "energy_per_atom": [-8.744614], "formation_energy_per_atom": [-1.036218], "homogeneous_poisson": [0.237], "is_gap_direct": [false], "is_magnetic": [true], "is_metal": [true], "is_stable": [true], "nelements": [3], "nsites": [12], "num_magnetic_sites": [8], "num_unique_magnetic_sites": [4], "theoretical": [false], "total_magnetization": [8.388094], "total_magnetization_normalized_formula_units": [2.097023], "total_magnetization_normalized_vol": [0.04720836], "uncorrected_energy_per_atom": [-16.61072], "universal_anisotropy": [0.284], "volume": [177.6824], "equilibrium_reaction_energy_per_atom": [-0.09839328]}