{"includesElement": ["", "Sc", "H"], "includesElement___series_id": [8, 1], "includesElement__abundance_crust": [22.0, 1400.0], "includesElement__atomic_number": [21, 1], "includesElement__atomic_radius": [160.0, 25.0], "includesElement__atomic_radius_rahm": [263.0, 154.0], "includesElement__atomic_volume": [15.0, 14.1], "includesElement__atomic_weight": [44.95591, 1.008], "includesElement__covalent_radius_cordero": [170.0, 31.0], "includesElement__covalent_radius_pyykko": [148.0, 32.0], "includesElement__covalent_radius_pyykko_double": [116.0], "includesElement__covalent_radius_pyykko_triple": [114.0], "includesElement__density": [2.99, 8.2e-05], "includesElement__dipole_polarizability": [97.0, 4.50711], "includesElement__dipole_polarizability_unc": [10.0, 3e-05], "includesElement__discovery_year": [1879, 1766], "includesElement__electron_affinity": [0.188, 0.754195], "includesElement__electronegativity_allred-rochow": [0.0001369613, 0.0009765625], "includesElement__electronegativity_cottrell-sutton": [0.1423737, 0.1767767], "includesElement__electronegativity_ghosh": [0.1193833, 0.2638], "includesElement__electronegativity_gordy": [0.02027027, 0.03125], "includesElement__electronegativity_mulliken": [3.374745, 7.176315], "includesElement__electronegativity_nagle": [0.3138941, 0.6053882], "includesElement__electronegativity_pauling": [1.36, 2.2], "includesElement__electronegativity_sanderson": [0.3038674, 2.187771], "includesElement__en_ghosh": [0.1193833, 0.2638], "includesElement__en_pauling": [1.36, 2.2], "includesElement__evaporation_heat": [332.7, 0.904], "includesElement__fusion_heat": [15.8, 0.117], "includesElement__glawe_number": [48, 103], "includesElement__group_id": [3, 1], "includesElement__heat_of_formation": [377.8, 217.998], "includesElement__is_radioactive": [false], "includesElement__lattice_constant": [3.31, 3.75], "includesElement__mendeleev_number": [11, 105], "includesElement__molar_heat_capacity": [25.52, 28.836], "includesElement__period": [4, 1], "includesElement__pettifor_number": [20, 103], "includesElement__specific_heat_capacity": [0.568, 14.304], "includesElement__vdw_radius": [215.0, 110.0], "includesElement__vdw_radius_alvarez": [258.0, 120.0], "includesElement__vdw_radius_mm3": [261.0, 162.0], "includesElement__vdw_radius_uff": [329.5, 288.6], "includesElement__abundance_sea": [6e-07, 108000.0], "includesElement__atomic_weight_uncertainty": [5e-06], "includesElement__c6_gb": [1570.0, 6.51], "includesElement__electronegativity_allen": [7.042, 13.61], "includesElement__en_allen": [7.042, 13.61], "includesElement__metallic_radius": [144.0], "includesElement__metallic_radius_c12": [162.0, 78.0], "includesElement__thermal_conductivity": [15.8, 0.1815], "includesElement__vdw_radius_batsanov": [230.0], "includesElement__c6": [1383.0, 6.499027], "includesElement__is_monoisotopic": [true], "includesElement__gas_basicity": [892.0], "includesElement__proton_affinity": [914.0], "includesElement__vdw_radius_dreiding": [319.5], "includesElement__vdw_radius_bondi": [120.0], "includesElement__vdw_radius_rt": [110.0], "formula": ["H2Sc1"], "spacegroup": ["225"], "thermalConductivity": [19.1495], "icsd": ["638458"], "band_gap": [0.0], "density": [2.877994], "density_atomic": [9.033897], "deprecated": [false], "efermi": [4.063453], "energy_above_hull": [0.0], "energy_per_atom": [-6.840998], "formation_energy_per_atom": [-0.7380942], "homogeneous_poisson": [0.223], "is_gap_direct": [false], "is_magnetic": [false], "is_metal": [true], "is_stable": [true], "nelements": [2], "nsites": [3], "num_magnetic_sites": [0], "num_unique_magnetic_sites": [0], "theoretical": [false], "total_magnetization": [0.0004258], "total_magnetization_normalized_formula_units": [0.0004258], "total_magnetization_normalized_vol": [1.57112e-05], "uncorrected_energy_per_atom": [-6.840998], "universal_anisotropy": [0.214], "volume": [27.10169], "equilibrium_reaction_energy_per_atom": [-0.7380942]}