{"includesElement": ["", "Se", "Pu"], "includesElement___series_id": [1, 10], "includesElement__abundance_crust": [0.05], "includesElement__atomic_number": [34, 94], "includesElement__atomic_radius": [115.0, 175.0], "includesElement__atomic_radius_rahm": [224.0, 278.0], "includesElement__atomic_volume": [16.5], "includesElement__atomic_weight": [78.971, 244.0], "includesElement__covalent_radius_cordero": [120.0, 187.0], "includesElement__covalent_radius_pyykko": [116.0, 172.0], "includesElement__covalent_radius_pyykko_double": [107.0, 135.0], "includesElement__covalent_radius_pyykko_triple": [107.0], "includesElement__density": [4.809, 19.7], "includesElement__dipole_polarizability": [28.9, 132.0], "includesElement__dipole_polarizability_unc": [1.0, 20.0], "includesElement__discovery_year": [1818, 1940], "includesElement__electron_affinity": [2.02067], "includesElement__electronegativity_allred-rochow": [0.0005164982, 9.633586e-05], "includesElement__electronegativity_cottrell-sutton": [0.2447729, 0.1287236], "includesElement__electronegativity_ghosh": [0.2240328, 0.16137], "includesElement__electronegativity_gordy": [0.05991379, 0.01656977], "includesElement__electronegativity_mulliken": [5.886531, 3.0129], "includesElement__electronegativity_nagle": [0.592131, 0.3928005], "includesElement__electronegativity_pauling": [2.55, 1.3], "includesElement__electronegativity_sanderson": [0.9659121, 0.6084717], "includesElement__en_ghosh": [0.2240328, 0.16137], "includesElement__en_pauling": [2.55, 1.3], "includesElement__evaporation_heat": [59.7, 343.5], "includesElement__fusion_heat": [5.23, 2.8], "includesElement__glawe_number": [95, 38], "includesElement__group_id": [16], "includesElement__heat_of_formation": [227.2, 345.0], "includesElement__is_radioactive": [false, true], "includesElement__lattice_constant": [4.36], "includesElement__mendeleev_number": [101, 24], "includesElement__molar_heat_capacity": [25.363], "includesElement__period": [4, 7], "includesElement__pettifor_number": [93, 43], "includesElement__specific_heat_capacity": [0.321], "includesElement__vdw_radius": [190.0, 243.0], "includesElement__vdw_radius_alvarez": [182.0, 281.0], "includesElement__vdw_radius_mm3": [229.0, 252.0], "includesElement__vdw_radius_uff": [420.5, 342.4], "includesElement__abundance_sea": [0.0002], "includesElement__atomic_weight_uncertainty": [0.008], "includesElement__c6_gb": [233.0], "includesElement__covalent_radius_bragg": [117.0], "includesElement__electronegativity_allen": [14.34], "includesElement__en_allen": [14.34], "includesElement__metallic_radius": [117.0], "includesElement__metallic_radius_c12": [140.0], "includesElement__thermal_conductivity": [0.52], "includesElement__vdw_radius_batsanov": [190.0], "includesElement__c6": [210.0], "includesElement__vdw_radius_dreiding": [403.0], "includesElement__vdw_radius_bondi": [190.0], "formula": ["Pu1Se1"], "spacegroup": ["225"], "thermalConductivity": [5.44778], "icsd": ["649958"], "band_gap": [0.0], "density": [10.52498], "density_atomic": [25.47689], "deprecated": [false], "efermi": [8.735525], "energy_above_hull": [0.0], "energy_per_atom": [-52.25719], "formation_energy_per_atom": [-1.923235], "is_gap_direct": [false], "is_magnetic": [true], "is_metal": [true], "is_stable": [true], "nelements": [2], "nsites": [2], "num_magnetic_sites": [1], "num_unique_magnetic_sites": [1], "theoretical": [false], "total_magnetization": [5.819485], "total_magnetization_normalized_formula_units": [5.819485], "total_magnetization_normalized_vol": [0.1142111], "uncorrected_energy_per_atom": [-52.25719], "volume": [50.95378], "equilibrium_reaction_energy_per_atom": [-0.1507919]}