{"includesElement": ["", "N", "Dy"], "includesElement___series_id": [1, 9], "includesElement__abundance_crust": [19.0, 5.2], "includesElement__atomic_number": [7, 66], "includesElement__atomic_radius": [65.0, 175.0], "includesElement__atomic_radius_rahm": [179.0, 275.0], "includesElement__atomic_volume": [17.3, 19.0], "includesElement__atomic_weight": [14.007, 162.5], "includesElement__covalent_radius_cordero": [71.0, 192.0], "includesElement__covalent_radius_pyykko": [71.0, 167.0], "includesElement__covalent_radius_pyykko_double": [60.0, 133.0], "includesElement__covalent_radius_pyykko_triple": [54.0], "includesElement__density": [0.001145, 8.55], "includesElement__dipole_polarizability": [7.4, 163.0], "includesElement__dipole_polarizability_unc": [0.2, 15.0], "includesElement__discovery_year": [1772, 1886], "includesElement__electron_affinity": [-1.4, 0.352], "includesElement__electronegativity_allred-rochow": [0.000773656, 0.0001021908], "includesElement__electronegativity_cottrell-sutton": [0.2343706, 0.1306364], "includesElement__electronegativity_ghosh": [0.26493, 0.20333], "includesElement__electronegativity_gordy": [0.05492958, 0.01706587], "includesElement__electronegativity_mulliken": [6.567065, 3.145525], "includesElement__electronegativity_nagle": [0.8774979, 0.4191131], "includesElement__electronegativity_pauling": [3.04, 1.22], "includesElement__electronegativity_sanderson": [0.577482, 0.5297338], "includesElement__en_ghosh": [0.26493, 0.20333], "includesElement__en_pauling": [3.04, 1.22], "includesElement__glawe_number": [88, 24], "includesElement__group_id": [15], "includesElement__heat_of_formation": [472.44, 290.4], "includesElement__is_radioactive": [false], "includesElement__lattice_constant": [4.039, 3.59], "includesElement__mendeleev_number": [93, 31], "includesElement__molar_heat_capacity": [29.124, 28.16], "includesElement__period": [2, 6], "includesElement__pettifor_number": [100, 25], "includesElement__specific_heat_capacity": [1.04, 0.173], "includesElement__vdw_radius": [155.0, 231.0], "includesElement__vdw_radius_alvarez": [166.0, 287.0], "includesElement__vdw_radius_mm3": [193.0, 290.0], "includesElement__vdw_radius_uff": [366.0, 342.8], "includesElement__abundance_sea": [0.5, 9.1e-07], "includesElement__c6_gb": [25.7, 2430.0], "includesElement__covalent_radius_bragg": [65.0], "includesElement__electronegativity_allen": [18.13], "includesElement__en_allen": [18.13], "includesElement__metallic_radius_c12": [53.0], "includesElement__thermal_conductivity": [0.026, 10.7], "includesElement__vdw_radius_batsanov": [160.0], "includesElement__c6": [24.2], "includesElement__vdw_radius_dreiding": [366.21], "includesElement__gas_basicity": [318.7], "includesElement__proton_affinity": [342.2], "includesElement__vdw_radius_bondi": [155.0], "includesElement__vdw_radius_rt": [164.0], "includesElement__evaporation_heat": [291.0], "includesElement__atomic_weight_uncertainty": [0.001], "formula": ["Dy1N1"], "spacegroup": ["225"], "thermalConductivity": [34.9622], "icsd": ["106594"], "band_gap": [0.0431], "density": [10.03231], "density_atomic": [14.60761], "deprecated": [false], "efermi": [3.980689], "energy_above_hull": [0.0], "energy_per_atom": [-22.57598], "formation_energy_per_atom": [-2.020705], "homogeneous_poisson": [0.199], "is_gap_direct": [false], "is_magnetic": [false], "is_metal": [false], "is_stable": [true], "nelements": [2], "nsites": [2], "num_magnetic_sites": [0], "num_unique_magnetic_sites": [0], "theoretical": [false], "total_magnetization": [0.0], "total_magnetization_normalized_formula_units": [0.0], "total_magnetization_normalized_vol": [0.0], "uncorrected_energy_per_atom": [-22.57598], "universal_anisotropy": [0.001], "volume": [29.21523], "cbm": [4.0009], "equilibrium_reaction_energy_per_atom": [-2.020705], "vbm": [3.9578]}