{"includesElement": ["", "Si", "Cu", "Hf"], "includesElement___series_id": [5, 8], "includesElement__abundance_crust": [282000.0, 60.0, 3.0], "includesElement__atomic_number": [14, 29, 72], "includesElement__atomic_radius": [110.0, 135.0, 155.0], "includesElement__atomic_radius_rahm": [232.0, 217.0, 264.0], "includesElement__atomic_volume": [12.1, 7.1, 13.6], "includesElement__atomic_weight": [28.085, 63.546, 178.49], "includesElement__covalent_radius_cordero": [111.0, 132.0, 175.0], "includesElement__covalent_radius_pyykko": [116.0, 112.0, 152.0], "includesElement__covalent_radius_pyykko_double": [107.0, 115.0, 128.0], "includesElement__covalent_radius_pyykko_triple": [102.0, 120.0, 122.0], "includesElement__density": [2.3296, 8.96, 13.3], "includesElement__dipole_polarizability": [37.3, 46.5, 103.0], "includesElement__dipole_polarizability_unc": [0.7, 0.5, 6.0], "includesElement__discovery_year": [1824, 1923], "includesElement__electron_affinity": [1.389521, 1.235, 0.014], "includesElement__electronegativity_allred-rochow": [0.0003084126, 0.0002949617, 0.00013634], "includesElement__electronegativity_cottrell-sutton": [0.1891451, 0.1817573, 0.1439572], "includesElement__electronegativity_ghosh": [0.178503, 0.1511716, 0.229987], "includesElement__electronegativity_gordy": [0.03577586, 0.03303571, 0.02072368], "includesElement__electronegativity_mulliken": [4.770602, 4.48069, 3.419535], "includesElement__electronegativity_nagle": [0.4750986, 0.6184623, 0.3386421], "includesElement__electronegativity_pauling": [1.9, 1.3], "includesElement__electronegativity_sanderson": [0.3468158, 0.9175542, 0.7352125], "includesElement__en_ghosh": [0.178503, 0.1511716, 0.229987], "includesElement__en_pauling": [1.9, 1.3], "includesElement__evaporation_heat": [383.0, 304.6, 575.0], "includesElement__fusion_heat": [50.6, 13.01, 25.1], "includesElement__glawe_number": [85, 68, 50], "includesElement__group_id": [14, 11, 4], "includesElement__heat_of_formation": [450.0, 337.4, 618.4], "includesElement__is_radioactive": [false], "includesElement__lattice_constant": [5.43, 3.61, 3.2], "includesElement__mendeleev_number": [88, 71, 45], "includesElement__molar_heat_capacity": [19.99, 24.44, 25.73], "includesElement__period": [3, 4, 6], "includesElement__pettifor_number": [85, 72, 50], "includesElement__specific_heat_capacity": [0.712, 0.385, 0.144], "includesElement__vdw_radius": [210.0, 196.0, 223.0], "includesElement__vdw_radius_alvarez": [219.0, 238.0, 263.0], "includesElement__vdw_radius_mm3": [229.0, 226.0, 253.0], "includesElement__vdw_radius_uff": [429.5, 349.5, 314.1], "includesElement__abundance_sea": [2.2, 0.00025, 7e-06], "includesElement__c6_gb": [308.0, 264.0, 1040.0], "includesElement__covalent_radius_bragg": [117.0, 137.0], "includesElement__electronegativity_allen": [11.33, 10.96, 6.83], "includesElement__en_allen": [11.33, 10.96, 6.83], "includesElement__metallic_radius": [117.0, 118.0, 144.0], "includesElement__metallic_radius_c12": [138.0, 128.0, 159.0], "includesElement__thermal_conductivity": [149.0, 401.0, 23.0], "includesElement__vdw_radius_batsanov": [210.0, 200.0, 225.0], "includesElement__c6": [305.0, 253.0], "includesElement__vdw_radius_dreiding": [427.0], "includesElement__gas_basicity": [814.1, 632.4], "includesElement__proton_affinity": [837.0, 655.3], "includesElement__vdw_radius_bondi": [210.0], "includesElement__atomic_weight_uncertainty": [0.003, 0.02], "formula": ["Cu4Hf4Si4"], "spacegroup": ["62"], "thermalConductivity": [5.40844], "icsd": ["627916"], "band_gap": [0.0], "density": [10.01761], "density_atomic": [14.9253], "deprecated": [false], "efermi": [7.379986], "energy_above_hull": [0.0], "energy_per_atom": [-7.076534], "formation_energy_per_atom": [-0.5826295], "homogeneous_poisson": [0.26], "is_gap_direct": [false], "is_magnetic": [false], "is_metal": [true], "is_stable": [true], "nelements": [3], "nsites": [12], "num_magnetic_sites": [0], "num_unique_magnetic_sites": [0], "theoretical": [false], "total_magnetization": [6e-07], "total_magnetization_normalized_formula_units": [1.5e-07], "total_magnetization_normalized_vol": [3.350016e-09], "uncorrected_energy_per_atom": [-22.2335], "universal_anisotropy": [0.157], "volume": [179.1036], "equilibrium_reaction_energy_per_atom": [-0.03903447]}