{"includesElement": ["", "N", "In", "Ho"], "includesElement___series_id": [1, 7, 9], "includesElement__abundance_crust": [19.0, 0.25, 1.3], "includesElement__atomic_number": [7, 49, 67], "includesElement__atomic_radius": [65.0, 155.0, 175.0], "includesElement__atomic_radius_rahm": [179.0, 246.0, 273.0], "includesElement__atomic_volume": [17.3, 15.7, 18.7], "includesElement__atomic_weight": [14.007, 114.818, 164.9303], "includesElement__covalent_radius_cordero": [71.0, 142.0, 192.0], "includesElement__covalent_radius_pyykko": [71.0, 142.0, 166.0], "includesElement__covalent_radius_pyykko_double": [60.0, 136.0, 133.0], "includesElement__covalent_radius_pyykko_triple": [54.0, 146.0], "includesElement__density": [0.001145, 7.31, 8.8], "includesElement__dipole_polarizability": [7.4, 65.0, 156.0], "includesElement__dipole_polarizability_unc": [0.2, 4.0, 10.0], "includesElement__discovery_year": [1772, 1863, 1878], "includesElement__electron_affinity": [-1.4, 0.3], "includesElement__electronegativity_allred-rochow": [0.000773656, 0.0002479667, 0.0001034258], "includesElement__electronegativity_cottrell-sutton": [0.2343706, 0.1876467, 0.1310293], "includesElement__electronegativity_ghosh": [0.26493, 0.16423, 0.207795], "includesElement__electronegativity_gordy": [0.05492958, 0.03521127, 0.01716867], "includesElement__electronegativity_mulliken": [6.567065, 3.043178, 3.01075], "includesElement__electronegativity_nagle": [0.8774979, 0.3587038, 0.4367902], "includesElement__electronegativity_pauling": [3.04, 1.78, 1.23], "includesElement__electronegativity_sanderson": [0.577482, 0.7172747, 0.5434919], "includesElement__en_ghosh": [0.26493, 0.16423, 0.207795], "includesElement__en_pauling": [3.04, 1.78, 1.23], "includesElement__glawe_number": [88, 80, 23], "includesElement__group_id": [15, 13], "includesElement__heat_of_formation": [472.44, 243.0, 300.6], "includesElement__is_radioactive": [false], "includesElement__lattice_constant": [4.039, 4.59, 3.58], "includesElement__mendeleev_number": [93, 84, 33], "includesElement__molar_heat_capacity": [29.124, 26.74, 27.15], "includesElement__period": [2, 5, 6], "includesElement__pettifor_number": [100, 79, 24], "includesElement__specific_heat_capacity": [1.04, 0.233, 0.165], "includesElement__vdw_radius": [155.0, 193.0, 230.0], "includesElement__vdw_radius_alvarez": [166.0, 243.0, 281.0], "includesElement__vdw_radius_mm3": [193.0, 264.0, 267.0], "includesElement__vdw_radius_uff": [366.0, 446.3, 340.9], "includesElement__abundance_sea": [0.5, 0.02, 2.2e-07], "includesElement__c6_gb": [25.7, 643.0, 2280.0], "includesElement__covalent_radius_bragg": [65.0], "includesElement__electronegativity_allen": [18.13, 9.793], "includesElement__en_allen": [18.13, 9.793], "includesElement__metallic_radius_c12": [53.0, 158.0], "includesElement__thermal_conductivity": [0.026, 81.8], "includesElement__vdw_radius_batsanov": [160.0, 220.0], "includesElement__c6": [24.2, 779.0], "includesElement__vdw_radius_dreiding": [366.21, 459.0], "includesElement__gas_basicity": [318.7], "includesElement__proton_affinity": [342.2], "includesElement__vdw_radius_bondi": [155.0, 193.0], "includesElement__vdw_radius_rt": [164.0], "includesElement__evaporation_heat": [225.1, 301.0], "includesElement__fusion_heat": [3.24], "includesElement__atomic_weight_uncertainty": [0.001, 2e-05], "includesElement__metallic_radius": [142.0], "includesElement__is_monoisotopic": [true], "formula": ["Ho3In1N1"], "spacegroup": ["221"], "thermalConductivity": [9.15715], "icsd": ["98505"], "band_gap": [0.0], "density": [9.587531], "density_atomic": [21.60177], "deprecated": [false], "efermi": [4.823886], "energy_above_hull": [0.0], "energy_per_atom": [-6.045183], "formation_energy_per_atom": [-1.067085], "is_gap_direct": [false], "is_magnetic": [false], "is_metal": [true], "is_stable": [true], "nelements": [3], "nsites": [5], "num_magnetic_sites": [0], "num_unique_magnetic_sites": [0], "theoretical": [false], "total_magnetization": [9e-07], "total_magnetization_normalized_formula_units": [9e-07], "total_magnetization_normalized_vol": [8.33265e-09], "uncorrected_energy_per_atom": [-27.27917], "volume": [108.0089], "equilibrium_reaction_energy_per_atom": [-0.1033787]}