{"includesElement": ["", "Ni", "P", "Si"], "includesElement___series_id": [8, 1, 5], "includesElement__abundance_crust": [84.0, 1050.0, 282000.0], "includesElement__atomic_number": [28, 15, 14], "includesElement__atomic_radius": [135.0, 100.0, 110.0], "includesElement__atomic_radius_rahm": [229.0, 223.0, 232.0], "includesElement__atomic_volume": [6.6, 17.0, 12.1], "includesElement__atomic_weight": [58.6934, 30.97376, 28.085], "includesElement__covalent_radius_cordero": [124.0, 107.0, 111.0], "includesElement__covalent_radius_pyykko": [110.0, 111.0, 116.0], "includesElement__covalent_radius_pyykko_double": [101.0, 102.0, 107.0], "includesElement__covalent_radius_pyykko_triple": [101.0, 94.0, 102.0], "includesElement__density": [8.9, 1.823, 2.3296], "includesElement__dipole_polarizability": [49.0, 25.0, 37.3], "includesElement__dipole_polarizability_unc": [3.0, 1.0, 0.7], "includesElement__discovery_year": [1751, 1669, 1824], "includesElement__electron_affinity": [1.156, 0.746607, 1.389521], "includesElement__electronegativity_allred-rochow": [0.0003347107, 0.0003895788, 0.0003084126], "includesElement__electronegativity_cottrell-sutton": [0.1918806, 0.2079501, 0.1891451], "includesElement__electronegativity_ghosh": [0.1472068, 0.206931, 0.178503], "includesElement__electronegativity_gordy": [0.03681818, 0.04324324, 0.03577586], "includesElement__electronegativity_mulliken": [4.397939, 5.616646, 4.770602], "includesElement__electronegativity_nagle": [0.588755, 0.5848035, 0.4750986], "includesElement__electronegativity_pauling": [1.91, 2.19, 1.9], "includesElement__electronegativity_sanderson": [0.937704, 0.4510269, 0.3468158], "includesElement__en_ghosh": [0.1472068, 0.206931, 0.178503], "includesElement__en_pauling": [1.91, 2.19, 1.9], "includesElement__evaporation_heat": [378.6, 49.8, 383.0], "includesElement__fusion_heat": [17.61, 2.51, 50.6], "includesElement__glawe_number": [69, 89, 85], "includesElement__group_id": [10, 15, 14], "includesElement__heat_of_formation": [430.1, 316.5, 450.0], "includesElement__is_radioactive": [false], "includesElement__lattice_constant": [3.52, 7.17, 5.43], "includesElement__mendeleev_number": [67, 94, 88], "includesElement__molar_heat_capacity": [26.07, 23.824, 19.99], "includesElement__period": [4, 3], "includesElement__pettifor_number": [67, 90, 85], "includesElement__specific_heat_capacity": [0.444, 0.769, 0.712], "includesElement__vdw_radius": [197.0, 180.0, 210.0], "includesElement__vdw_radius_alvarez": [240.0, 190.0, 219.0], "includesElement__vdw_radius_mm3": [222.0, 229.0], "includesElement__vdw_radius_uff": [283.4, 414.7, 429.5], "includesElement__abundance_sea": [0.00056, 0.06, 2.2], "includesElement__atomic_weight_uncertainty": [0.0004, 5e-09], "includesElement__c6_gb": [393.0, 187.0, 308.0], "includesElement__covalent_radius_bragg": [135.0, 117.0], "includesElement__electronegativity_allen": [11.13, 13.33, 11.33], "includesElement__en_allen": [11.13, 13.33, 11.33], "includesElement__metallic_radius": [115.0, 110.0, 117.0], "includesElement__metallic_radius_c12": [124.0, 128.0, 138.0], "includesElement__thermal_conductivity": [90.9, 149.0], "includesElement__vdw_radius_batsanov": [200.0, 195.0, 210.0], "includesElement__c6": [373.0, 185.0, 305.0], "includesElement__gas_basicity": [714.1, 604.8, 814.1], "includesElement__proton_affinity": [737.0, 626.8, 837.0], "includesElement__is_monoisotopic": [true], "includesElement__vdw_radius_dreiding": [415.0, 427.0], "includesElement__vdw_radius_bondi": [180.0, 210.0], "formula": ["Ni1P4Si3"], "spacegroup": ["121"], "thermalConductivity": [6.57731], "icsd": ["39452"], "band_gap": [0.3365], "density": [3.206157], "density_atomic": [17.27561], "deprecated": [false], "efermi": [7.156954], "energy_above_hull": [0.0], "energy_per_atom": [-9.575181], "formation_energy_per_atom": [-0.2862669], "homogeneous_poisson": [0.252], "is_gap_direct": [false], "is_magnetic": [false], "is_metal": [false], "is_stable": [true], "nelements": [3], "nsites": [8], "num_magnetic_sites": [0], "num_unique_magnetic_sites": [0], "theoretical": [false], "total_magnetization": [0.0], "total_magnetization_normalized_formula_units": [0.0], "total_magnetization_normalized_vol": [0.0], "uncorrected_energy_per_atom": [-9.575181], "universal_anisotropy": [0.373], "volume": [138.2049], "cbm": [7.3797], "e_electronic": [18.6551], "e_ionic": [2.901374], "e_total": [21.55647], "equilibrium_reaction_energy_per_atom": [-0.03175778], "n": [4.319155], "vbm": [7.0432], "e_ij_max": [0.7303455]}