{"includesElement": ["", "Al", "Tb", "C"], "includesElement___series_id": [7, 9, 1], "includesElement__abundance_crust": [82300.0, 1.2, 200.0], "includesElement__atomic_number": [13, 65, 6], "includesElement__atomic_radius": [125.0, 175.0, 70.0], "includesElement__atomic_radius_rahm": [239.0, 276.0, 190.0], "includesElement__atomic_volume": [10.0, 19.2, 5.3], "includesElement__atomic_weight": [26.98154, 158.9254, 12.011], "includesElement__covalent_radius_cordero": [121.0, 194.0, 73.0], "includesElement__covalent_radius_pyykko": [126.0, 168.0, 75.0], "includesElement__covalent_radius_pyykko_double": [113.0, 135.0, 67.0], "includesElement__covalent_radius_pyykko_triple": [111.0, 60.0], "includesElement__density": [2.7, 8.23, 2.2], "includesElement__dipole_polarizability": [57.8, 170.0, 11.3], "includesElement__dipole_polarizability_unc": [1.0, 20.0, 0.2], "includesElement__discovery_year": [1825, 1843], "includesElement__electron_affinity": [0.43283, 1.165, 1.262119], "includesElement__electronegativity_allred-rochow": [0.0002204586, 0.0001009779, 0.0005777778], "includesElement__electronegativity_cottrell-sutton": [0.1666667, 0.130247, 0.2081666], "includesElement__electronegativity_ghosh": [0.150078, 0.198863, 0.224776], "includesElement__electronegativity_gordy": [0.02777778, 0.01696429, 0.04333333], "includesElement__electronegativity_mulliken": [3.209299, 3.5144, 6.261208], "includesElement__electronegativity_nagle": [0.3730192, 0.4014652, 0.7073926], "includesElement__electronegativity_pauling": [1.61, 2.55], "includesElement__electronegativity_sanderson": [0.2360927, 0.5163695, 0.427525], "includesElement__en_ghosh": [0.150078, 0.198863, 0.224776], "includesElement__en_pauling": [1.61, 2.55], "includesElement__evaporation_heat": [284.1, 389.0], "includesElement__fusion_heat": [10.75], "includesElement__glawe_number": [78, 25, 87], "includesElement__group_id": [13, 14], "includesElement__heat_of_formation": [330.9, 388.7, 716.87], "includesElement__is_radioactive": [false], "includesElement__lattice_constant": [4.05, 3.6, 3.57], "includesElement__mendeleev_number": [82, 29, 87], "includesElement__molar_heat_capacity": [24.2, 28.91, 8.517], "includesElement__period": [3, 6, 2], "includesElement__pettifor_number": [80, 26, 95], "includesElement__specific_heat_capacity": [0.897, 0.182, 0.709], "includesElement__vdw_radius": [184.0, 233.0, 170.0], "includesElement__vdw_radius_alvarez": [225.0, 279.0, 177.0], "includesElement__vdw_radius_mm3": [236.0, 270.0, 204.0], "includesElement__vdw_radius_uff": [449.9, 345.1, 385.1], "includesElement__abundance_sea": [0.002, 1.4e-07, 28.0], "includesElement__atomic_weight_uncertainty": [7e-07, 2e-05], "includesElement__c6_gb": [520.0, 2590.0, 47.9], "includesElement__covalent_radius_bragg": [135.0, 77.0], "includesElement__electronegativity_allen": [9.539, 15.05], "includesElement__en_allen": [9.539, 15.05], "includesElement__metallic_radius": [125.0], "includesElement__metallic_radius_c12": [143.0, 86.0], "includesElement__thermal_conductivity": [237.0, 11.1, 1.59], "includesElement__vdw_radius_batsanov": [210.0, 170.0], "includesElement__c6": [528.0, 46.6], "includesElement__is_monoisotopic": [true], "includesElement__vdw_radius_dreiding": [439.0, 389.83], "includesElement__vdw_radius_truhlar": [184.0], "includesElement__vdw_radius_bondi": [170.0], "includesElement__vdw_radius_rt": [177.0], "formula": ["Al1C1Tb3"], "spacegroup": ["221"], "thermalConductivity": [2.00545], "icsd": ["606265"], "band_gap": [0.0], "density": [5.51804], "density_atomic": [31.04194], "deprecated": [false], "efermi": [1.925455], "energy_above_hull": [1.786531], "energy_per_atom": [-3.945756], "formation_energy_per_atom": [1.431811], "homogeneous_poisson": [0.325], "is_gap_direct": [false], "is_magnetic": [false], "is_metal": [true], "is_stable": [false], "nelements": [3], "nsites": [5], "num_magnetic_sites": [0], "num_unique_magnetic_sites": [0], "theoretical": [false], "total_magnetization": [0.0001463], "total_magnetization_normalized_formula_units": [0.0001463], "total_magnetization_normalized_vol": [9.425956e-07], "uncorrected_energy_per_atom": [-3.945756], "universal_anisotropy": [8.323], "volume": [155.2097]}