{"includesElement": ["", "As", "Ca", "N"], "includesElement___series_id": [5, 4, 1], "includesElement__abundance_crust": [1.8, 41500.0, 19.0], "includesElement__atomic_number": [33, 20, 7], "includesElement__atomic_radius": [115.0, 180.0, 65.0], "includesElement__atomic_radius_rahm": [231.0, 270.0, 179.0], "includesElement__atomic_volume": [13.1, 29.9, 17.3], "includesElement__atomic_weight": [74.92159, 40.078, 14.007], "includesElement__covalent_radius_cordero": [119.0, 176.0, 71.0], "includesElement__covalent_radius_pyykko": [121.0, 171.0, 71.0], "includesElement__covalent_radius_pyykko_double": [114.0, 147.0, 60.0], "includesElement__covalent_radius_pyykko_triple": [106.0, 133.0, 54.0], "includesElement__density": [5.75, 1.54, 0.001145], "includesElement__dipole_polarizability": [30.0, 160.8, 7.4], "includesElement__dipole_polarizability_unc": [1.0, 4.0, 0.2], "includesElement__electron_affinity": [0.804, 0.02455, -1.4], "includesElement__electronegativity_allred-rochow": [0.0004302985, 9.746589e-05, 0.000773656], "includesElement__electronegativity_cottrell-sutton": [0.22818, 0.1290994, 0.2343706], "includesElement__electronegativity_ghosh": [0.2068208, 0.1154119, 0.26493], "includesElement__electronegativity_gordy": [0.05206612, 0.01666667, 0.05492958], "includesElement__electronegativity_mulliken": [5.2965, 3.068853, 6.567065], "includesElement__electronegativity_nagle": [0.5503212, 0.2316939, 0.8774979], "includesElement__electronegativity_pauling": [2.18, 1.0, 3.04], "includesElement__electronegativity_sanderson": [0.8253373, 0.1901577, 0.577482], "includesElement__en_ghosh": [0.2068208, 0.1154119, 0.26493], "includesElement__en_pauling": [2.18, 1.0, 3.04], "includesElement__evaporation_heat": [32.4, 153.6], "includesElement__glawe_number": [90, 16, 88], "includesElement__group_id": [15, 2], "includesElement__heat_of_formation": [302.5, 177.8, 472.44], "includesElement__is_radioactive": [false], "includesElement__lattice_constant": [4.13, 5.58, 4.039], "includesElement__mendeleev_number": [95, 7, 93], "includesElement__molar_heat_capacity": [24.64, 25.929, 29.124], "includesElement__period": [4, 2], "includesElement__pettifor_number": [89, 16, 100], "includesElement__specific_heat_capacity": [0.329, 0.647, 1.04], "includesElement__vdw_radius": [185.0, 231.0, 155.0], "includesElement__vdw_radius_alvarez": [188.0, 262.0, 166.0], "includesElement__vdw_radius_mm3": [236.0, 281.0, 193.0], "includesElement__vdw_radius_uff": [423.0, 339.9, 366.0], "includesElement__abundance_sea": [0.0037, 412.0, 0.5], "includesElement__atomic_weight_uncertainty": [6e-06, 0.004], "includesElement__c6_gb": [260.0, 2230.0, 25.7], "includesElement__covalent_radius_bragg": [126.0, 170.0, 65.0], "includesElement__electronegativity_allen": [13.08, 6.113, 18.13], "includesElement__en_allen": [13.08, 6.113, 18.13], "includesElement__metallic_radius": [121.0, 174.0], "includesElement__metallic_radius_c12": [148.0, 197.0, 53.0], "includesElement__vdw_radius_batsanov": [205.0, 240.0, 160.0], "includesElement__c6": [246.0, 2163.0, 24.2], "includesElement__is_monoisotopic": [true], "includesElement__vdw_radius_dreiding": [415.0, 366.21], "includesElement__vdw_radius_bondi": [185.0, 155.0], "includesElement__discovery_year": [1808, 1772], "includesElement__fusion_heat": [9.2], "includesElement__vdw_radius_truhlar": [231.0], "includesElement__thermal_conductivity": [0.026], "includesElement__gas_basicity": [318.7], "includesElement__proton_affinity": [342.2], "includesElement__vdw_radius_rt": [164.0], "formula": ["As4Ca12N4"], "spacegroup": ["62"], "thermalConductivity": [3.50373], "icsd": ["657354"], "band_gap": [0.894], "density": [3.22933], "density_atomic": [21.51048], "deprecated": [false], "efermi": [3.518636], "energy_above_hull": [0.0], "energy_per_atom": [-10.28257], "formation_energy_per_atom": [-1.292341], "homogeneous_poisson": [0.197], "is_gap_direct": [true], "is_magnetic": [false], "is_metal": [false], "is_stable": [true], "nelements": [3], "nsites": [20], "num_magnetic_sites": [0], "num_unique_magnetic_sites": [0], "theoretical": [false], "total_magnetization": [0.0], "total_magnetization_normalized_formula_units": [0.0], "total_magnetization_normalized_vol": [0.0], "uncorrected_energy_per_atom": [-10.28257], "universal_anisotropy": [0.024], "volume": [430.2096], "cbm": [4.3338], "e_electronic": [8.580527], "e_ionic": [19.64327], "e_total": [28.2238], "equilibrium_reaction_energy_per_atom": [-0.1471586], "n": [2.929254], "vbm": [3.4398]}