{"includesElement": ["", "Tl", "Th"], "includesElement___series_id": [7, 10], "includesElement__abundance_crust": [0.85, 9.6], "includesElement__atomic_number": [81, 90], "includesElement__atomic_radius": [190.0, 180.0], "includesElement__atomic_radius_rahm": [242.0, 288.0], "includesElement__atomic_volume": [17.2, 19.8], "includesElement__atomic_weight": [204.38, 232.0377], "includesElement__covalent_radius_cordero": [145.0, 206.0], "includesElement__covalent_radius_pyykko": [144.0, 175.0], "includesElement__covalent_radius_pyykko_double": [142.0, 143.0], "includesElement__covalent_radius_pyykko_triple": [150.0, 136.0], "includesElement__density": [11.8, 11.7], "includesElement__dipole_polarizability": [50.0, 217.0], "includesElement__dipole_polarizability_unc": [2.0, 54.0], "includesElement__discovery_year": [1861, 1828], "includesElement__electron_affinity": [0.377], "includesElement__electronegativity_allred-rochow": [0.0002411265, 0.0001028571], "includesElement__electronegativity_cottrell-sutton": [0.186339, 0.1341641], "includesElement__electronegativity_ghosh": [0.173447, 0.10277], "includesElement__electronegativity_gordy": [0.03472222, 0.018], "includesElement__electronegativity_mulliken": [3.242643, 3.15335], "includesElement__electronegativity_nagle": [0.3914868, 0.2641598], "includesElement__electronegativity_pauling": [1.8, 1.3], "includesElement__electronegativity_sanderson": [0.9245096, 0.5557019], "includesElement__en_ghosh": [0.173447, 0.10277], "includesElement__en_pauling": [1.8, 1.3], "includesElement__evaporation_heat": [162.4, 513.7], "includesElement__fusion_heat": [4.31, 16.11], "includesElement__glawe_number": [81, 34], "includesElement__group_id": [13], "includesElement__heat_of_formation": [182.2, 602.0], "includesElement__is_radioactive": [false, true], "includesElement__lattice_constant": [3.46, 5.08], "includesElement__mendeleev_number": [85, 16], "includesElement__molar_heat_capacity": [26.32, 27.32], "includesElement__period": [6, 7], "includesElement__pettifor_number": [78, 47], "includesElement__specific_heat_capacity": [0.129, 0.118], "includesElement__vdw_radius": [196.0, 245.0], "includesElement__vdw_radius_alvarez": [247.0, 293.0], "includesElement__vdw_radius_mm3": [259.0, 274.0], "includesElement__vdw_radius_uff": [434.7, 339.6], "includesElement__abundance_sea": [1.9e-05, 1e-06], "includesElement__c6_gb": [509.0], "includesElement__covalent_radius_bragg": [190.0], "includesElement__metallic_radius": [144.0], "includesElement__metallic_radius_c12": [160.0], "includesElement__thermal_conductivity": [46.1], "includesElement__vdw_radius_batsanov": [220.0, 240.0], "includesElement__vdw_radius_bondi": [196.0], "includesElement__atomic_weight_uncertainty": [0.0004], "formula": ["Th1Tl3"], "spacegroup": ["221"], "thermalConductivity": [0.823113], "icsd": ["106159"], "band_gap": [0.0], "density": [12.66298], "density_atomic": [27.70808], "deprecated": [false], "efermi": [7.463573], "energy_above_hull": [0.0], "energy_per_atom": [-58.48831], "formation_energy_per_atom": [-0.2350158], "homogeneous_poisson": [0.3], "is_gap_direct": [false], "is_magnetic": [false], "is_metal": [true], "is_stable": [true], "nelements": [2], "nsites": [4], "num_magnetic_sites": [0], "num_unique_magnetic_sites": [0], "theoretical": [false], "total_magnetization": [7.4e-06], "total_magnetization_normalized_formula_units": [7.4e-06], "total_magnetization_normalized_vol": [6.676752e-08], "uncorrected_energy_per_atom": [-58.48831], "universal_anisotropy": [0.229], "volume": [110.8323], "equilibrium_reaction_energy_per_atom": [-0.1056174]}