{"includesElement": ["", "Ge", "Y", "Rh"], "includesElement___series_id": [5, 8], "includesElement__abundance_crust": [1.5, 33.0, 0.001], "includesElement__atomic_number": [32, 39, 45], "includesElement__atomic_radius": [125.0, 180.0, 135.0], "includesElement__atomic_radius_rahm": [234.0, 274.0, 233.0], "includesElement__atomic_volume": [13.6, 19.8, 8.3], "includesElement__atomic_weight": [72.63, 88.90584, 102.9055], "includesElement__covalent_radius_cordero": [120.0, 190.0, 142.0], "includesElement__covalent_radius_pyykko": [121.0, 163.0, 125.0], "includesElement__covalent_radius_pyykko_double": [111.0, 130.0, 110.0], "includesElement__covalent_radius_pyykko_triple": [114.0, 124.0, 106.0], "includesElement__density": [5.3234, 4.47, 12.4], "includesElement__dipole_polarizability": [40.0, 162.0, 66.0], "includesElement__dipole_polarizability_unc": [1.0, 12.0, 10.0], "includesElement__discovery_year": [1886, 1789, 1803], "includesElement__electron_affinity": [1.232712, 0.307, 1.137], "includesElement__electronegativity_allred-rochow": [0.0003859026, 0.0001129135, 0.0002176], "includesElement__electronegativity_cottrell-sutton": [0.2160884, 0.1356647, 0.1649242], "includesElement__electronegativity_ghosh": [0.1895892, 0.1216986, 0.1408379], "includesElement__electronegativity_gordy": [0.04669421, 0.01840491, 0.0272], "includesElement__electronegativity_mulliken": [4.566073, 3.26213, 4.29795], "includesElement__electronegativity_nagle": [0.4641589, 0.2645668, 0.5147142], "includesElement__electronegativity_pauling": [2.01, 1.22, 2.28], "includesElement__electronegativity_sanderson": [0.8001471, 0.3923941, 0.9761915], "includesElement__en_ghosh": [0.1895892, 0.1216986, 0.1408379], "includesElement__en_pauling": [2.01, 1.22, 2.28], "includesElement__evaporation_heat": [328.0, 367.0, 494.0], "includesElement__fusion_heat": [36.8, 11.5, 21.8], "includesElement__glawe_number": [84, 21, 63], "includesElement__group_id": [14, 3, 9], "includesElement__heat_of_formation": [372.0, 424.7, 556.0], "includesElement__is_radioactive": [false], "includesElement__lattice_constant": [5.66, 3.65, 3.8], "includesElement__mendeleev_number": [89, 12, 64], "includesElement__molar_heat_capacity": [23.222, 26.53, 24.98], "includesElement__period": [4, 5], "includesElement__pettifor_number": [84, 19, 66], "includesElement__specific_heat_capacity": [0.32, 0.298, 0.243], "includesElement__vdw_radius": [211.0, 232.0, 210.0], "includesElement__vdw_radius_alvarez": [229.0, 275.0, 244.0], "includesElement__vdw_radius_mm3": [244.0, 271.0, 234.0], "includesElement__vdw_radius_uff": [428.0, 334.5, 292.9], "includesElement__abundance_sea": [5e-05, 1.3e-05], "includesElement__atomic_weight_uncertainty": [0.008, 2e-05], "includesElement__c6_gb": [365.0, 2600.0, 708.0], "includesElement__electronegativity_allen": [11.8, 6.631, 9.259], "includesElement__en_allen": [11.8, 6.631, 9.259], "includesElement__metallic_radius": [124.0, 162.0, 125.0], "includesElement__metallic_radius_c12": [144.0, 180.0, 134.0], "includesElement__thermal_conductivity": [60.2, 150.0], "includesElement__vdw_radius_batsanov": [210.0, 240.0, 200.0], "includesElement__c6": [354.0], "includesElement__vdw_radius_dreiding": [427.0], "includesElement__vdw_radius_truhlar": [211.0], "includesElement__is_monoisotopic": [true], "includesElement__gas_basicity": [945.9, 745.4], "includesElement__proton_affinity": [967.0, 768.0], "formula": ["Ge2Rh2Y1"], "spacegroup": ["139"], "thermalConductivity": [7.34652], "icsd": ["52768"], "band_gap": [0.0], "density": [8.392077], "density_atomic": [17.41242], "deprecated": [false], "efermi": [6.433505], "energy_above_hull": [0.0], "energy_per_atom": [-6.97537], "formation_energy_per_atom": [-0.8786171], "homogeneous_poisson": [0.297], "is_gap_direct": [false], "is_magnetic": [false], "is_metal": [true], "is_stable": [true], "nelements": [3], "nsites": [5], "num_magnetic_sites": [0], "num_unique_magnetic_sites": [0], "theoretical": [false], "total_magnetization": [0.0], "total_magnetization_normalized_formula_units": [0.0], "total_magnetization_normalized_vol": [0.0], "uncorrected_energy_per_atom": [-20.2292], "universal_anisotropy": [0.206], "volume": [87.06212], "equilibrium_reaction_energy_per_atom": [-0.07883839]}