{"includesElement": ["", "Ir", "W"], "includesElement___series_id": [8], "includesElement__abundance_crust": [0.001, 1.25], "includesElement__atomic_number": [77, 74], "includesElement__atomic_radius": [135.0], "includesElement__atomic_radius_rahm": [240.0, 253.0], "includesElement__atomic_volume": [8.54, 9.53], "includesElement__atomic_weight": [192.217, 183.84], "includesElement__covalent_radius_cordero": [141.0, 162.0], "includesElement__covalent_radius_pyykko": [122.0, 137.0], "includesElement__covalent_radius_pyykko_double": [115.0, 120.0], "includesElement__covalent_radius_pyykko_triple": [107.0, 115.0], "includesElement__density": [22.5622, 19.3], "includesElement__dipole_polarizability": [54.0, 68.0], "includesElement__dipole_polarizability_unc": [7.0, 15.0], "includesElement__discovery_year": [1804, 1783], "includesElement__electron_affinity": [1.5638, 0.81626], "includesElement__electronegativity_allred-rochow": [0.0002620263, 0.0001838137], "includesElement__electronegativity_cottrell-sutton": [0.1787938, 0.1586899], "includesElement__electronegativity_ghosh": [0.25106, 0.2390504], "includesElement__electronegativity_gordy": [0.03196721, 0.02518248], "includesElement__electronegativity_mulliken": [5.26541, 4.340145], "includesElement__electronegativity_nagle": [0.5503212, 0.4451921], "includesElement__electronegativity_pauling": [2.2, 1.7], "includesElement__electronegativity_sanderson": [1.475998, 1.019283], "includesElement__en_ghosh": [0.25106, 0.2390504], "includesElement__en_pauling": [2.2, 1.7], "includesElement__evaporation_heat": [604.0, 824.0], "includesElement__fusion_heat": [27.61, 35.0], "includesElement__glawe_number": [62, 57], "includesElement__group_id": [9, 6], "includesElement__heat_of_formation": [669.0, 851.0], "includesElement__is_radioactive": [false], "includesElement__lattice_constant": [3.84, 3.16], "includesElement__mendeleev_number": [65, 53], "includesElement__molar_heat_capacity": [25.1, 24.27], "includesElement__period": [6], "includesElement__pettifor_number": [65, 56], "includesElement__specific_heat_capacity": [0.131, 0.132], "includesElement__vdw_radius": [213.0, 218.0], "includesElement__vdw_radius_alvarez": [241.0, 257.0], "includesElement__vdw_radius_mm3": [236.0, 239.0], "includesElement__vdw_radius_uff": [284.0, 309.6], "includesElement__atomic_weight_uncertainty": [0.003, 0.01], "includesElement__c6_gb": [522.0, 757.0], "includesElement__electronegativity_allen": [9.96, 8.67], "includesElement__en_allen": [9.96, 8.67], "includesElement__metallic_radius": [127.0, 130.0], "includesElement__metallic_radius_c12": [136.0, 139.0], "includesElement__thermal_conductivity": [147.0, 173.0], "includesElement__vdw_radius_batsanov": [200.0, 210.0], "includesElement__abundance_sea": [0.0001], "formula": ["Ir2W2"], "spacegroup": ["51"], "thermalConductivity": [21.6256], "icsd": ["104596"], "band_gap": [0.0], "density": [20.88454], "density_atomic": [14.95023], "deprecated": [false], "efermi": [8.377952], "energy_above_hull": [0.0], "energy_per_atom": [-52.1593], "formation_energy_per_atom": [-0.2957252], "homogeneous_poisson": [0.266], "is_gap_direct": [false], "is_magnetic": [false], "is_metal": [true], "is_stable": [true], "nelements": [2], "nsites": [4], "num_magnetic_sites": [0], "num_unique_magnetic_sites": [0], "theoretical": [false], "total_magnetization": [1e-07], "total_magnetization_normalized_formula_units": [5e-08], "total_magnetization_normalized_vol": [1.672215e-09], "uncorrected_energy_per_atom": [-52.1593], "universal_anisotropy": [0.075], "volume": [59.80093], "equilibrium_reaction_energy_per_atom": [-0.04854025]}