{"includesElement": ["", "Zr", "Ir"], "includesElement___series_id": [8], "includesElement__abundance_crust": [165.0, 0.001], "includesElement__atomic_number": [40, 77], "includesElement__atomic_radius": [155.0, 135.0], "includesElement__atomic_radius_rahm": [269.0, 240.0], "includesElement__atomic_volume": [14.1, 8.54], "includesElement__atomic_weight": [91.224, 192.217], "includesElement__covalent_radius_cordero": [175.0, 141.0], "includesElement__covalent_radius_pyykko": [154.0, 122.0], "includesElement__covalent_radius_pyykko_double": [127.0, 115.0], "includesElement__covalent_radius_pyykko_triple": [121.0, 107.0], "includesElement__density": [6.52, 22.5622], "includesElement__dipole_polarizability": [112.0, 54.0], "includesElement__dipole_polarizability_unc": [13.0, 7.0], "includesElement__discovery_year": [1789, 1804], "includesElement__electron_affinity": [0.426, 1.5638], "includesElement__electronegativity_allred-rochow": [0.0001328217, 0.0002620263], "includesElement__electronegativity_cottrell-sutton": [0.1430194, 0.1787938], "includesElement__electronegativity_ghosh": [0.1248887, 0.25106], "includesElement__electronegativity_gordy": [0.02045455, 0.03196721], "includesElement__electronegativity_mulliken": [3.52995, 5.26541], "includesElement__electronegativity_nagle": [0.3293169, 0.5503212], "includesElement__electronegativity_pauling": [1.33, 2.2], "includesElement__electronegativity_sanderson": [0.4744467, 1.475998], "includesElement__en_ghosh": [0.1248887, 0.25106], "includesElement__en_pauling": [1.33, 2.2], "includesElement__evaporation_heat": [567.0, 604.0], "includesElement__fusion_heat": [19.2, 27.61], "includesElement__glawe_number": [49, 62], "includesElement__group_id": [4, 9], "includesElement__heat_of_formation": [610.0, 669.0], "includesElement__is_radioactive": [false], "includesElement__lattice_constant": [3.23, 3.84], "includesElement__mendeleev_number": [44, 65], "includesElement__molar_heat_capacity": [25.36, 25.1], "includesElement__period": [5, 6], "includesElement__pettifor_number": [49, 65], "includesElement__specific_heat_capacity": [0.278, 0.131], "includesElement__vdw_radius": [223.0, 213.0], "includesElement__vdw_radius_alvarez": [252.0, 241.0], "includesElement__vdw_radius_mm3": [254.0, 236.0], "includesElement__vdw_radius_uff": [312.4, 284.0], "includesElement__abundance_sea": [3e-05], "includesElement__atomic_weight_uncertainty": [0.002, 0.003], "includesElement__c6_gb": [1360.0, 522.0], "includesElement__electronegativity_allen": [7.808, 9.96], "includesElement__en_allen": [7.808, 9.96], "includesElement__metallic_radius": [145.0, 127.0], "includesElement__metallic_radius_c12": [160.0, 136.0], "includesElement__thermal_conductivity": [22.7, 147.0], "includesElement__vdw_radius_batsanov": [230.0, 200.0], "formula": ["Ir4Zr12"], "spacegroup": ["121"], "thermalConductivity": [1.15839], "icsd": ["104607"], "band_gap": [0.0], "density": [9.297102], "density_atomic": [20.80291], "deprecated": [false], "efermi": [5.14118], "energy_above_hull": [0.0], "energy_per_atom": [-30.7516], "formation_energy_per_atom": [-0.5994196], "is_gap_direct": [false], "is_magnetic": [false], "is_metal": [true], "is_stable": [true], "nelements": [2], "nsites": [16], "num_magnetic_sites": [0], "num_unique_magnetic_sites": [0], "theoretical": [false], "total_magnetization": [1.088639], "total_magnetization_normalized_formula_units": [0.2721596], "total_magnetization_normalized_vol": [0.003270693], "uncorrected_energy_per_atom": [-30.7516], "volume": [332.8465], "equilibrium_reaction_energy_per_atom": [-0.02699148]}