{"includesElement": ["", "Al", "Er", "C"], "includesElement___series_id": [7, 9, 1], "includesElement__abundance_crust": [82300.0, 3.5, 200.0], "includesElement__atomic_number": [13, 68, 6], "includesElement__atomic_radius": [125.0, 175.0, 70.0], "includesElement__atomic_radius_rahm": [239.0, 272.0, 190.0], "includesElement__atomic_volume": [10.0, 18.4, 5.3], "includesElement__atomic_weight": [26.98154, 167.259, 12.011], "includesElement__covalent_radius_cordero": [121.0, 189.0, 73.0], "includesElement__covalent_radius_pyykko": [126.0, 165.0, 75.0], "includesElement__covalent_radius_pyykko_double": [113.0, 133.0, 67.0], "includesElement__covalent_radius_pyykko_triple": [111.0, 60.0], "includesElement__density": [2.7, 9.07, 2.2], "includesElement__dipole_polarizability": [57.8, 150.0, 11.3], "includesElement__dipole_polarizability_unc": [1.0, 10.0, 0.2], "includesElement__discovery_year": [1825, 1843], "includesElement__electron_affinity": [0.43283, 1.262119], "includesElement__electronegativity_allred-rochow": [0.0002204586, 0.0001046832, 0.0005777778], "includesElement__electronegativity_cottrell-sutton": [0.1666667, 0.1314257, 0.2081666], "includesElement__electronegativity_ghosh": [0.150078, 0.212261, 0.224776], "includesElement__electronegativity_gordy": [0.02777778, 0.01727273, 0.04333333], "includesElement__electronegativity_mulliken": [3.209299, 3.05385, 6.261208], "includesElement__electronegativity_nagle": [0.3730192, 0.4536061, 0.7073926], "includesElement__electronegativity_pauling": [1.61, 1.24, 2.55], "includesElement__electronegativity_sanderson": [0.2360927, 0.5576573, 0.427525], "includesElement__en_ghosh": [0.150078, 0.212261, 0.224776], "includesElement__en_pauling": [1.61, 1.24, 2.55], "includesElement__evaporation_heat": [284.1, 317.0], "includesElement__fusion_heat": [10.75], "includesElement__glawe_number": [78, 22, 87], "includesElement__group_id": [13, 14], "includesElement__heat_of_formation": [330.9, 316.4, 716.87], "includesElement__is_radioactive": [false], "includesElement__lattice_constant": [4.05, 3.56, 3.57], "includesElement__mendeleev_number": [82, 35, 87], "includesElement__molar_heat_capacity": [24.2, 28.12, 8.517], "includesElement__period": [3, 6, 2], "includesElement__pettifor_number": [80, 23, 95], "includesElement__specific_heat_capacity": [0.897, 0.168, 0.709], "includesElement__vdw_radius": [184.0, 229.0, 170.0], "includesElement__vdw_radius_alvarez": [225.0, 283.0, 177.0], "includesElement__vdw_radius_mm3": [236.0, 267.0, 204.0], "includesElement__vdw_radius_uff": [449.9, 339.1, 385.1], "includesElement__abundance_sea": [0.002, 8.7e-07, 28.0], "includesElement__atomic_weight_uncertainty": [7e-07, 0.003], "includesElement__c6_gb": [520.0, 2150.0, 47.9], "includesElement__covalent_radius_bragg": [135.0, 77.0], "includesElement__electronegativity_allen": [9.539, 15.05], "includesElement__en_allen": [9.539, 15.05], "includesElement__metallic_radius": [125.0], "includesElement__metallic_radius_c12": [143.0, 86.0], "includesElement__thermal_conductivity": [237.0, 1.59], "includesElement__vdw_radius_batsanov": [210.0, 170.0], "includesElement__c6": [528.0, 46.6], "includesElement__is_monoisotopic": [true], "includesElement__vdw_radius_dreiding": [439.0, 389.83], "includesElement__vdw_radius_truhlar": [184.0], "includesElement__vdw_radius_bondi": [170.0], "includesElement__vdw_radius_rt": [177.0], "formula": ["Al1C1Er3"], "spacegroup": ["221"], "thermalConductivity": [3.45882], "icsd": ["606192"], "band_gap": [0.0], "density": [6.020003], "density_atomic": [29.83282], "deprecated": [false], "efermi": [1.713198], "energy_above_hull": [1.87665], "energy_per_atom": [-3.890211], "formation_energy_per_atom": [1.445269], "homogeneous_poisson": [0.313], "is_gap_direct": [false], "is_magnetic": [false], "is_metal": [true], "is_stable": [false], "nelements": [3], "nsites": [5], "num_magnetic_sites": [0], "num_unique_magnetic_sites": [0], "theoretical": [false], "total_magnetization": [6.6e-06], "total_magnetization_normalized_formula_units": [6.6e-06], "total_magnetization_normalized_vol": [4.424656e-08], "uncorrected_energy_per_atom": [-3.890211], "universal_anisotropy": [10.86], "volume": [149.1641]}