{"includesElement": ["", "Mg", "Li", "Bi"], "includesElement___series_id": [4, 3, 7], "includesElement__abundance_crust": [23300.0, 20.0, 0.0085], "includesElement__atomic_number": [12, 3, 83], "includesElement__atomic_radius": [150.0, 145.0, 160.0], "includesElement__atomic_radius_rahm": [240.0, 220.0, 250.0], "includesElement__atomic_volume": [14.0, 13.1, 21.3], "includesElement__atomic_weight": [24.305, 6.94, 208.9804], "includesElement__covalent_radius_cordero": [141.0, 128.0, 148.0], "includesElement__covalent_radius_pyykko": [139.0, 133.0, 151.0], "includesElement__covalent_radius_pyykko_double": [132.0, 124.0, 141.0], "includesElement__covalent_radius_pyykko_triple": [127.0, 135.0], "includesElement__density": [1.74, 0.534, 9.79], "includesElement__dipole_polarizability": [71.2, 164.1125, 48.0], "includesElement__dipole_polarizability_unc": [0.4, 0.0005, 4.0], "includesElement__discovery_year": [1808, 1817], "includesElement__electronegativity_allred-rochow": [0.0001475079, 7.3492e-05, 0.0002763037], "includesElement__electronegativity_cottrell-sutton": [0.1431908, 0.09886575, 0.2042593], "includesElement__electronegativity_ghosh": [0.121644, 0.105093, 0.182377], "includesElement__electronegativity_gordy": [0.0205036, 0.009774436, 0.04172185], "includesElement__electronegativity_mulliken": [3.823117, 3.004882, 4.113939], "includesElement__electronegativity_nagle": [0.3039835, 0.1826499, 0.470518], "includesElement__electronegativity_pauling": [1.31, 0.98, 1.9], "includesElement__electronegativity_sanderson": [0.1524211, 0.04886793, 0.8136501], "includesElement__en_ghosh": [0.121644, 0.105093, 0.182377], "includesElement__en_pauling": [1.31, 0.98, 1.9], "includesElement__evaporation_heat": [131.8, 148.0, 172.0], "includesElement__fusion_heat": [9.2, 2.89, 11.0], "includesElement__glawe_number": [73, 12, 92], "includesElement__group_id": [2, 1, 15], "includesElement__heat_of_formation": [147.1, 159.3, 209.6], "includesElement__is_radioactive": [false], "includesElement__lattice_constant": [3.21, 3.49, 4.75], "includesElement__mendeleev_number": [76, 1, 97], "includesElement__molar_heat_capacity": [24.869, 24.86, 25.52], "includesElement__period": [3, 2, 6], "includesElement__pettifor_number": [73, 12, 87], "includesElement__specific_heat_capacity": [1.023, 3.582, 0.122], "includesElement__vdw_radius": [173.0, 182.0, 207.0], "includesElement__vdw_radius_alvarez": [251.0, 212.0, 254.0], "includesElement__vdw_radius_mm3": [243.0, 255.0, 266.0], "includesElement__vdw_radius_uff": [302.1, 245.1, 437.0], "includesElement__abundance_sea": [1290.0, 0.18, 2e-05], "includesElement__c6_gb": [629.0, 1410.0, 513.0], "includesElement__covalent_radius_bragg": [142.0, 150.0, 148.0], "includesElement__electronegativity_allen": [7.646, 5.392, 11.9], "includesElement__en_allen": [7.646, 5.392, 11.9], "includesElement__metallic_radius": [136.0, 123.0, 151.0], "includesElement__metallic_radius_c12": [160.0, 155.0, 178.0], "includesElement__thermal_conductivity": [156.0, 84.8, 7.9], "includesElement__vdw_radius_batsanov": [220.0, 230.0], "includesElement__c6": [626.0, 1392.0], "includesElement__gas_basicity": [797.3], "includesElement__proton_affinity": [819.6], "includesElement__vdw_radius_bondi": [173.0, 181.0], "includesElement__electron_affinity": [0.618049, 0.942362], "includesElement__atomic_weight_uncertainty": [1e-05], "includesElement__is_monoisotopic": [true], "includesElement__vdw_radius_truhlar": [207.0], "formula": ["Bi1Li1Mg1", "LiMgBi"], "mp_id": ["570213"], "spacegroup": ["216"], "thermalConductivity": [3.78424, 15.77], "icsd": ["108112"], "band_gap": [0.3587], "density": [5.117847], "density_atomic": [25.98132], "deprecated": [false], "efermi": [3.019901], "energy_above_hull": [0.0], "energy_per_atom": [-2.87326], "formation_energy_per_atom": [-0.413299], "homogeneous_poisson": [0.219], "is_gap_direct": [true], "is_magnetic": [false], "is_metal": [false], "is_stable": [true], "nelements": [3], "nsites": [3], "num_magnetic_sites": [0], "num_unique_magnetic_sites": [0], "theoretical": [false], "total_magnetization": [0.0], "total_magnetization_normalized_formula_units": [0.0], "total_magnetization_normalized_vol": [0.0], "uncorrected_energy_per_atom": [-22.20917], "universal_anisotropy": [0.168], "volume": [77.94397], "cbm": [3.068], "e_electronic": [19.53459], "e_ionic": [5.515231], "e_total": [25.04982], "equilibrium_reaction_energy_per_atom": [-0.06218191], "n": [4.419796], "vbm": [2.7093], "e_ij_max": [0.0742275]}