{"includesElement": ["", "Cd", "S", "Lu"], "includesElement___series_id": [8, 1], "includesElement__abundance_crust": [0.15, 350.0, 0.8], "includesElement__atomic_number": [48, 16, 71], "includesElement__atomic_radius": [155.0, 100.0, 175.0], "includesElement__atomic_radius_rahm": [238.0, 214.0, 270.0], "includesElement__atomic_volume": [13.1, 15.5, 17.8], "includesElement__atomic_weight": [112.414, 32.06, 174.9668], "includesElement__covalent_radius_cordero": [144.0, 105.0, 187.0], "includesElement__covalent_radius_pyykko": [136.0, 103.0, 162.0], "includesElement__covalent_radius_pyykko_double": [144.0, 94.0, 131.0], "includesElement__density": [8.69, 2.07, 9.84], "includesElement__dipole_polarizability": [46.0, 19.4, 137.0], "includesElement__dipole_polarizability_unc": [2.0, 0.1, 7.0], "includesElement__discovery_year": [1817, 1907], "includesElement__electronegativity_allred-rochow": [0.000235186, 0.0005137148, 0.0001143118], "includesElement__electronegativity_cottrell-sutton": [0.1788443, 0.2300274, 0.1360828], "includesElement__electronegativity_ghosh": [0.1504066, 0.23596, 0.22565], "includesElement__electronegativity_gordy": [0.03198529, 0.05291262, 0.01851852], "includesElement__electronegativity_mulliken": [4.496911, 6.218557, 2.882935], "includesElement__electronegativity_nagle": [0.6389612, 0.6762644, 0.4987805], "includesElement__electronegativity_pauling": [1.69, 2.58, 1.0], "includesElement__electronegativity_sanderson": [0.801562, 0.6397251, 0.6027398], "includesElement__en_ghosh": [0.1504066, 0.23596, 0.22565], "includesElement__en_pauling": [1.69, 2.58, 1.0], "includesElement__evaporation_heat": [59.1, 10.5, 414.0], "includesElement__fusion_heat": [6.11, 1.23], "includesElement__glawe_number": [75, 96, 19], "includesElement__group_id": [12, 16], "includesElement__heat_of_formation": [111.8, 277.17, 427.6], "includesElement__is_radioactive": [false], "includesElement__lattice_constant": [2.98, 10.47, 3.51], "includesElement__mendeleev_number": [78, 100, 41], "includesElement__molar_heat_capacity": [26.02, 22.7, 26.86], "includesElement__period": [5, 3, 6], "includesElement__pettifor_number": [75, 94, 21], "includesElement__specific_heat_capacity": [0.232, 0.708, 0.154], "includesElement__vdw_radius": [218.0, 180.0, 224.0], "includesElement__vdw_radius_alvarez": [249.0, 189.0, 274.0], "includesElement__vdw_radius_mm3": [250.0, 215.0, 265.0], "includesElement__vdw_radius_uff": [284.8, 403.5, 364.0], "includesElement__abundance_sea": [0.00011, 905.0, 1.5e-07], "includesElement__atomic_weight_uncertainty": [0.004, 0.0001], "includesElement__c6_gb": [405.0, 140.0, 2020.0], "includesElement__covalent_radius_bragg": [160.0, 102.0], "includesElement__electronegativity_allen": [8.995, 15.31, 6.455], "includesElement__en_allen": [8.995, 15.31, 6.455], "includesElement__metallic_radius": [138.0, 104.0], "includesElement__metallic_radius_c12": [151.0, 127.0], "includesElement__thermal_conductivity": [96.9, 0.27], "includesElement__vdw_radius_batsanov": [220.0, 180.0], "includesElement__covalent_radius_pyykko_triple": [95.0, 131.0], "includesElement__electron_affinity": [2.077104, 0.34], "includesElement__c6": [134.0], "includesElement__vdw_radius_dreiding": [403.0], "includesElement__gas_basicity": [640.2, 970.6], "includesElement__proton_affinity": [664.3, 992.0], "includesElement__vdw_radius_bondi": [180.0], "includesElement__vdw_radius_rt": [181.0], "formula": ["Cd2Lu4S8"], "spacegroup": ["227"], "thermalConductivity": [1.94935], "icsd": ["37410"], "band_gap": [1.2348], "density": [5.82487], "density_atomic": [24.0526], "deprecated": [false], "efermi": [1.898501], "energy_above_hull": [0.0], "energy_per_atom": [-20.28102], "formation_energy_per_atom": [-1.937485], "is_gap_direct": [true], "is_magnetic": [false], "is_metal": [false], "is_stable": [true], "nelements": [3], "nsites": [14], "num_magnetic_sites": [0], "num_unique_magnetic_sites": [0], "theoretical": [false], "total_magnetization": [0.0], "total_magnetization_normalized_formula_units": [0.0], "total_magnetization_normalized_vol": [0.0], "uncorrected_energy_per_atom": [-20.28102], "volume": [336.7363], "cbm": [3.0662], "equilibrium_reaction_energy_per_atom": [-0.0346872], "vbm": [1.8314]}