{"includesElement": ["", "Se", "Th"], "includesElement___series_id": [1, 10], "includesElement__abundance_crust": [0.05, 9.6], "includesElement__atomic_number": [34, 90], "includesElement__atomic_radius": [115.0, 180.0], "includesElement__atomic_radius_rahm": [224.0, 288.0], "includesElement__atomic_volume": [16.5, 19.8], "includesElement__atomic_weight": [78.971, 232.0377], "includesElement__covalent_radius_cordero": [120.0, 206.0], "includesElement__covalent_radius_pyykko": [116.0, 175.0], "includesElement__covalent_radius_pyykko_double": [107.0, 143.0], "includesElement__covalent_radius_pyykko_triple": [107.0, 136.0], "includesElement__density": [4.809, 11.7], "includesElement__dipole_polarizability": [28.9, 217.0], "includesElement__dipole_polarizability_unc": [1.0, 54.0], "includesElement__discovery_year": [1818, 1828], "includesElement__electron_affinity": [2.02067], "includesElement__electronegativity_allred-rochow": [0.0005164982, 0.0001028571], "includesElement__electronegativity_cottrell-sutton": [0.2447729, 0.1341641], "includesElement__electronegativity_ghosh": [0.2240328, 0.10277], "includesElement__electronegativity_gordy": [0.05991379, 0.018], "includesElement__electronegativity_mulliken": [5.886531, 3.15335], "includesElement__electronegativity_nagle": [0.592131, 0.2641598], "includesElement__electronegativity_pauling": [2.55, 1.3], "includesElement__electronegativity_sanderson": [0.9659121, 0.5557019], "includesElement__en_ghosh": [0.2240328, 0.10277], "includesElement__en_pauling": [2.55, 1.3], "includesElement__evaporation_heat": [59.7, 513.7], "includesElement__fusion_heat": [5.23, 16.11], "includesElement__glawe_number": [95, 34], "includesElement__group_id": [16], "includesElement__heat_of_formation": [227.2, 602.0], "includesElement__is_radioactive": [false, true], "includesElement__lattice_constant": [4.36, 5.08], "includesElement__mendeleev_number": [101, 16], "includesElement__molar_heat_capacity": [25.363, 27.32], "includesElement__period": [4, 7], "includesElement__pettifor_number": [93, 47], "includesElement__specific_heat_capacity": [0.321, 0.118], "includesElement__vdw_radius": [190.0, 245.0], "includesElement__vdw_radius_alvarez": [182.0, 293.0], "includesElement__vdw_radius_mm3": [229.0, 274.0], "includesElement__vdw_radius_uff": [420.5, 339.6], "includesElement__abundance_sea": [0.0002, 1e-06], "includesElement__atomic_weight_uncertainty": [0.008, 0.0004], "includesElement__c6_gb": [233.0], "includesElement__covalent_radius_bragg": [117.0], "includesElement__electronegativity_allen": [14.34], "includesElement__en_allen": [14.34], "includesElement__metallic_radius": [117.0], "includesElement__metallic_radius_c12": [140.0], "includesElement__thermal_conductivity": [0.52], "includesElement__vdw_radius_batsanov": [190.0, 240.0], "includesElement__c6": [210.0], "includesElement__vdw_radius_dreiding": [403.0], "includesElement__vdw_radius_bondi": [190.0], "formula": ["Se1Th1"], "spacegroup": ["221"], "thermalConductivity": [9.69772], "icsd": ["52443"], "band_gap": [0.0], "density": [10.55196], "density_atomic": [24.47055], "deprecated": [false], "efermi": [8.60263], "energy_above_hull": [0.1782336], "energy_per_atom": [-45.43732], "formation_energy_per_atom": [-1.543912], "is_gap_direct": [false], "is_magnetic": [false], "is_metal": [true], "is_stable": [false], "nelements": [2], "nsites": [2], "num_magnetic_sites": [0], "num_unique_magnetic_sites": [0], "theoretical": [false], "total_magnetization": [8.09e-05], "total_magnetization_normalized_formula_units": [8.09e-05], "total_magnetization_normalized_vol": [1.653007e-06], "uncorrected_energy_per_atom": [-6.826042], "volume": [48.9411]}