{"includesElement": ["", "N", "Sc"], "includesElement___series_id": [1, 8], "includesElement__abundance_crust": [19.0, 22.0], "includesElement__atomic_number": [7, 21], "includesElement__atomic_radius": [65.0, 160.0], "includesElement__atomic_radius_rahm": [179.0, 263.0], "includesElement__atomic_volume": [17.3, 15.0], "includesElement__atomic_weight": [14.007, 44.95591], "includesElement__covalent_radius_cordero": [71.0, 170.0], "includesElement__covalent_radius_pyykko": [71.0, 148.0], "includesElement__covalent_radius_pyykko_double": [60.0, 116.0], "includesElement__covalent_radius_pyykko_triple": [54.0, 114.0], "includesElement__density": [0.001145, 2.99], "includesElement__dipole_polarizability": [7.4, 97.0], "includesElement__dipole_polarizability_unc": [0.2, 10.0], "includesElement__discovery_year": [1772, 1879], "includesElement__electron_affinity": [-1.4, 0.188], "includesElement__electronegativity_allred-rochow": [0.000773656, 0.0001369613], "includesElement__electronegativity_cottrell-sutton": [0.2343706, 0.1423737], "includesElement__electronegativity_ghosh": [0.26493, 0.1193833], "includesElement__electronegativity_gordy": [0.05492958, 0.02027027], "includesElement__electronegativity_mulliken": [6.567065, 3.374745], "includesElement__electronegativity_nagle": [0.8774979, 0.3138941], "includesElement__electronegativity_pauling": [3.04, 1.36], "includesElement__electronegativity_sanderson": [0.577482, 0.3038674], "includesElement__en_ghosh": [0.26493, 0.1193833], "includesElement__en_pauling": [3.04, 1.36], "includesElement__glawe_number": [88, 48], "includesElement__group_id": [15, 3], "includesElement__heat_of_formation": [472.44, 377.8], "includesElement__is_radioactive": [false], "includesElement__lattice_constant": [4.039, 3.31], "includesElement__mendeleev_number": [93, 11], "includesElement__molar_heat_capacity": [29.124, 25.52], "includesElement__period": [2, 4], "includesElement__pettifor_number": [100, 20], "includesElement__specific_heat_capacity": [1.04, 0.568], "includesElement__vdw_radius": [155.0, 215.0], "includesElement__vdw_radius_alvarez": [166.0, 258.0], "includesElement__vdw_radius_mm3": [193.0, 261.0], "includesElement__vdw_radius_uff": [366.0, 329.5], "includesElement__abundance_sea": [0.5, 6e-07], "includesElement__c6_gb": [25.7, 1570.0], "includesElement__covalent_radius_bragg": [65.0], "includesElement__electronegativity_allen": [18.13, 7.042], "includesElement__en_allen": [18.13, 7.042], "includesElement__metallic_radius_c12": [53.0, 162.0], "includesElement__thermal_conductivity": [0.026, 15.8], "includesElement__vdw_radius_batsanov": [160.0, 230.0], "includesElement__c6": [24.2, 1383.0], "includesElement__vdw_radius_dreiding": [366.21], "includesElement__gas_basicity": [318.7, 892.0], "includesElement__proton_affinity": [342.2, 914.0], "includesElement__vdw_radius_bondi": [155.0], "includesElement__vdw_radius_rt": [164.0], "includesElement__evaporation_heat": [332.7], "includesElement__fusion_heat": [15.8], "includesElement__atomic_weight_uncertainty": [5e-06], "includesElement__metallic_radius": [144.0], "includesElement__is_monoisotopic": [true], "formula": ["N1Sc1"], "spacegroup": ["225"], "thermalConductivity": [70.0922], "icsd": ["155049"], "band_gap": [0.0], "density": [4.266614], "density_atomic": [11.47394], "deprecated": [false], "efermi": [5.542816], "energy_above_hull": [0.0], "energy_per_atom": [-9.427727], "formation_energy_per_atom": [-2.092354], "homogeneous_poisson": [0.192], "is_gap_direct": [false], "is_magnetic": [false], "is_metal": [true], "is_stable": [true], "nelements": [2], "nsites": [2], "num_magnetic_sites": [0], "num_unique_magnetic_sites": [0], "theoretical": [false], "total_magnetization": [0.0], "total_magnetization_normalized_formula_units": [0.0], "total_magnetization_normalized_vol": [0.0], "uncorrected_energy_per_atom": [-12.4508], "universal_anisotropy": [0.033], "volume": [22.94787], "equilibrium_reaction_energy_per_atom": [-0.2640458]}