{"includesElement": ["", "Cd", "In"], "includesElement___series_id": [8, 7], "includesElement__abundance_crust": [0.15, 0.25], "includesElement__atomic_number": [48, 49], "includesElement__atomic_radius": [155.0], "includesElement__atomic_radius_rahm": [238.0, 246.0], "includesElement__atomic_volume": [13.1, 15.7], "includesElement__atomic_weight": [112.414, 114.818], "includesElement__covalent_radius_cordero": [144.0, 142.0], "includesElement__covalent_radius_pyykko": [136.0, 142.0], "includesElement__covalent_radius_pyykko_double": [144.0, 136.0], "includesElement__density": [8.69, 7.31], "includesElement__dipole_polarizability": [46.0, 65.0], "includesElement__dipole_polarizability_unc": [2.0, 4.0], "includesElement__discovery_year": [1817, 1863], "includesElement__electronegativity_allred-rochow": [0.000235186, 0.0002479667], "includesElement__electronegativity_cottrell-sutton": [0.1788443, 0.1876467], "includesElement__electronegativity_ghosh": [0.1504066, 0.16423], "includesElement__electronegativity_gordy": [0.03198529, 0.03521127], "includesElement__electronegativity_mulliken": [4.496911, 3.043178], "includesElement__electronegativity_nagle": [0.6389612, 0.3587038], "includesElement__electronegativity_pauling": [1.69, 1.78], "includesElement__electronegativity_sanderson": [0.801562, 0.7172747], "includesElement__en_ghosh": [0.1504066, 0.16423], "includesElement__en_pauling": [1.69, 1.78], "includesElement__evaporation_heat": [59.1, 225.1], "includesElement__fusion_heat": [6.11, 3.24], "includesElement__glawe_number": [75, 80], "includesElement__group_id": [12, 13], "includesElement__heat_of_formation": [111.8, 243.0], "includesElement__is_radioactive": [false], "includesElement__lattice_constant": [2.98, 4.59], "includesElement__mendeleev_number": [78, 84], "includesElement__molar_heat_capacity": [26.02, 26.74], "includesElement__period": [5], "includesElement__pettifor_number": [75, 79], "includesElement__specific_heat_capacity": [0.232, 0.233], "includesElement__vdw_radius": [218.0, 193.0], "includesElement__vdw_radius_alvarez": [249.0, 243.0], "includesElement__vdw_radius_mm3": [250.0, 264.0], "includesElement__vdw_radius_uff": [284.8, 446.3], "includesElement__abundance_sea": [0.00011, 0.02], "includesElement__atomic_weight_uncertainty": [0.004, 0.001], "includesElement__c6_gb": [405.0, 643.0], "includesElement__covalent_radius_bragg": [160.0], "includesElement__electronegativity_allen": [8.995, 9.793], "includesElement__en_allen": [8.995, 9.793], "includesElement__metallic_radius": [138.0, 142.0], "includesElement__metallic_radius_c12": [151.0, 158.0], "includesElement__thermal_conductivity": [96.9, 81.8], "includesElement__vdw_radius_batsanov": [220.0], "includesElement__covalent_radius_pyykko_triple": [146.0], "includesElement__electron_affinity": [0.3], "includesElement__c6": [779.0], "includesElement__vdw_radius_dreiding": [459.0], "includesElement__vdw_radius_bondi": [193.0], "formula": ["Cd3In1"], "spacegroup": ["221"], "thermalConductivity": [0.127784], "icsd": ["109285"], "band_gap": [0.0], "density": [8.256221], "density_atomic": [22.72978], "deprecated": [false], "efermi": [3.362592], "energy_above_hull": [0.04173347], "energy_per_atom": [-20.68165], "formation_energy_per_atom": [0.04173347], "homogeneous_poisson": [0.313], "is_gap_direct": [false], "is_magnetic": [false], "is_metal": [true], "is_stable": [false], "nelements": [2], "nsites": [4], "num_magnetic_sites": [0], "num_unique_magnetic_sites": [0], "theoretical": [false], "total_magnetization": [0.0], "total_magnetization_normalized_formula_units": [0.0], "total_magnetization_normalized_vol": [0.0], "uncorrected_energy_per_atom": [-20.68165], "universal_anisotropy": [0.285], "volume": [90.91912]}