{"includesElement": ["", "Ge", "Rh", "Dy"], "includesElement___series_id": [5, 8, 9], "includesElement__abundance_crust": [1.5, 0.001, 5.2], "includesElement__atomic_number": [32, 45, 66], "includesElement__atomic_radius": [125.0, 135.0, 175.0], "includesElement__atomic_radius_rahm": [234.0, 233.0, 275.0], "includesElement__atomic_volume": [13.6, 8.3, 19.0], "includesElement__atomic_weight": [72.63, 102.9055, 162.5], "includesElement__covalent_radius_cordero": [120.0, 142.0, 192.0], "includesElement__covalent_radius_pyykko": [121.0, 125.0, 167.0], "includesElement__covalent_radius_pyykko_double": [111.0, 110.0, 133.0], "includesElement__covalent_radius_pyykko_triple": [114.0, 106.0], "includesElement__density": [5.3234, 12.4, 8.55], "includesElement__dipole_polarizability": [40.0, 66.0, 163.0], "includesElement__dipole_polarizability_unc": [1.0, 10.0, 15.0], "includesElement__discovery_year": [1886, 1803], "includesElement__electron_affinity": [1.232712, 1.137, 0.352], "includesElement__electronegativity_allred-rochow": [0.0003859026, 0.0002176, 0.0001021908], "includesElement__electronegativity_cottrell-sutton": [0.2160884, 0.1649242, 0.1306364], "includesElement__electronegativity_ghosh": [0.1895892, 0.1408379, 0.20333], "includesElement__electronegativity_gordy": [0.04669421, 0.0272, 0.01706587], "includesElement__electronegativity_mulliken": [4.566073, 4.29795, 3.145525], "includesElement__electronegativity_nagle": [0.4641589, 0.5147142, 0.4191131], "includesElement__electronegativity_pauling": [2.01, 2.28, 1.22], "includesElement__electronegativity_sanderson": [0.8001471, 0.9761915, 0.5297338], "includesElement__en_ghosh": [0.1895892, 0.1408379, 0.20333], "includesElement__en_pauling": [2.01, 2.28, 1.22], "includesElement__evaporation_heat": [328.0, 494.0, 291.0], "includesElement__fusion_heat": [36.8, 21.8], "includesElement__glawe_number": [84, 63, 24], "includesElement__group_id": [14, 9], "includesElement__heat_of_formation": [372.0, 556.0, 290.4], "includesElement__is_radioactive": [false], "includesElement__lattice_constant": [5.66, 3.8, 3.59], "includesElement__mendeleev_number": [89, 64, 31], "includesElement__molar_heat_capacity": [23.222, 24.98, 28.16], "includesElement__period": [4, 5, 6], "includesElement__pettifor_number": [84, 66, 25], "includesElement__specific_heat_capacity": [0.32, 0.243, 0.173], "includesElement__vdw_radius": [211.0, 210.0, 231.0], "includesElement__vdw_radius_alvarez": [229.0, 244.0, 287.0], "includesElement__vdw_radius_mm3": [244.0, 234.0, 290.0], "includesElement__vdw_radius_uff": [428.0, 292.9, 342.8], "includesElement__abundance_sea": [5e-05, 9.1e-07], "includesElement__atomic_weight_uncertainty": [0.008, 2e-05, 0.001], "includesElement__c6_gb": [365.0, 708.0, 2430.0], "includesElement__electronegativity_allen": [11.8, 9.259], "includesElement__en_allen": [11.8, 9.259], "includesElement__metallic_radius": [124.0, 125.0], "includesElement__metallic_radius_c12": [144.0, 134.0], "includesElement__thermal_conductivity": [60.2, 150.0, 10.7], "includesElement__vdw_radius_batsanov": [210.0, 200.0], "includesElement__c6": [354.0], "includesElement__vdw_radius_dreiding": [427.0], "includesElement__vdw_radius_truhlar": [211.0], "includesElement__is_monoisotopic": [true], "includesElement__gas_basicity": [745.4], "includesElement__proton_affinity": [768.0], "formula": ["Dy1Ge2Rh2"], "spacegroup": ["139"], "thermalConductivity": [6.82159], "icsd": ["55930"], "band_gap": [0.0], "density": [9.840365], "density_atomic": [17.33346], "deprecated": [false], "efermi": [6.393331], "energy_above_hull": [0.0], "energy_per_atom": [-6.597094], "formation_energy_per_atom": [-0.8784842], "is_gap_direct": [false], "is_magnetic": [false], "is_metal": [true], "is_stable": [true], "nelements": [3], "nsites": [5], "num_magnetic_sites": [0], "num_unique_magnetic_sites": [0], "theoretical": [false], "total_magnetization": [1.8e-06], "total_magnetization_normalized_formula_units": [1.8e-06], "total_magnetization_normalized_vol": [2.076908e-08], "uncorrected_energy_per_atom": [-22.5611], "volume": [86.66731], "equilibrium_reaction_energy_per_atom": [-0.01816353]}