{"includesElement": ["", "Hf", "Tc"], "includesElement___series_id": [8], "includesElement__abundance_crust": [3.0], "includesElement__atomic_number": [72, 43], "includesElement__atomic_radius": [155.0, 135.0], "includesElement__atomic_radius_rahm": [264.0, 252.0], "includesElement__atomic_volume": [13.6, 8.5], "includesElement__atomic_weight": [178.49, 97.90721], "includesElement__covalent_radius_cordero": [175.0, 147.0], "includesElement__covalent_radius_pyykko": [152.0, 128.0], "includesElement__covalent_radius_pyykko_double": [128.0, 120.0], "includesElement__covalent_radius_pyykko_triple": [122.0, 110.0], "includesElement__density": [13.3, 11.0], "includesElement__dipole_polarizability": [103.0, 79.0], "includesElement__dipole_polarizability_unc": [6.0, 10.0], "includesElement__discovery_year": [1923, 1937], "includesElement__electron_affinity": [0.014, 0.55], "includesElement__electronegativity_allred-rochow": [0.00013634, 0.0002197266], "includesElement__electronegativity_cottrell-sutton": [0.1439572, 0.1677051], "includesElement__electronegativity_ghosh": [0.229987, 0.1344592], "includesElement__electronegativity_gordy": [0.02072368, 0.028125], "includesElement__electronegativity_mulliken": [3.419535, 3.83469], "includesElement__electronegativity_nagle": [0.3386421, 0.4458174], "includesElement__electronegativity_pauling": [1.3, 2.1], "includesElement__electronegativity_sanderson": [0.7352125, 0.8753613], "includesElement__en_ghosh": [0.229987, 0.1344592], "includesElement__en_pauling": [1.3, 2.1], "includesElement__evaporation_heat": [575.0, 585.0], "includesElement__fusion_heat": [25.1, 23.8], "includesElement__glawe_number": [50, 59], "includesElement__group_id": [4, 7], "includesElement__heat_of_formation": [618.4, 678.0], "includesElement__is_radioactive": [false, true], "includesElement__lattice_constant": [3.2, 2.74], "includesElement__mendeleev_number": [45, 56], "includesElement__molar_heat_capacity": [25.73], "includesElement__period": [6, 5], "includesElement__pettifor_number": [50, 58], "includesElement__specific_heat_capacity": [0.144], "includesElement__vdw_radius": [223.0, 216.0], "includesElement__vdw_radius_alvarez": [263.0, 244.0], "includesElement__vdw_radius_mm3": [253.0, 236.0], "includesElement__vdw_radius_uff": [314.1, 299.8], "includesElement__abundance_sea": [7e-06], "includesElement__atomic_weight_uncertainty": [0.02, 3e-05], "includesElement__c6_gb": [1040.0, 939.0], "includesElement__electronegativity_allen": [6.83, 8.94], "includesElement__en_allen": [6.83, 8.94], "includesElement__metallic_radius": [144.0, 127.0], "includesElement__metallic_radius_c12": [159.0, 136.0], "includesElement__thermal_conductivity": [23.0, 50.6], "includesElement__vdw_radius_batsanov": [225.0, 205.0], "formula": ["Hf1Tc1"], "spacegroup": ["221"], "thermalConductivity": [14.4648], "icsd": ["104277"], "band_gap": [0.0], "density": [13.40709], "density_atomic": [17.12237], "deprecated": [false], "efermi": [6.257022], "energy_above_hull": [0.0], "energy_per_atom": [-36.0863], "formation_energy_per_atom": [-0.5282636], "homogeneous_poisson": [0.308], "is_gap_direct": [false], "is_magnetic": [false], "is_metal": [true], "is_stable": [true], "nelements": [2], "nsites": [2], "num_magnetic_sites": [0], "num_unique_magnetic_sites": [0], "theoretical": [false], "total_magnetization": [0.0], "total_magnetization_normalized_formula_units": [0.0], "total_magnetization_normalized_vol": [0.0], "uncorrected_energy_per_atom": [-36.0863], "universal_anisotropy": [0.321], "volume": [34.24475], "equilibrium_reaction_energy_per_atom": [-0.2207941]}