{"includesElement": ["", "As", "Rh"], "includesElement___series_id": [5, 8], "includesElement__abundance_crust": [1.8, 0.001], "includesElement__atomic_number": [33, 45], "includesElement__atomic_radius": [115.0, 135.0], "includesElement__atomic_radius_rahm": [231.0, 233.0], "includesElement__atomic_volume": [13.1, 8.3], "includesElement__atomic_weight": [74.92159, 102.9055], "includesElement__covalent_radius_cordero": [119.0, 142.0], "includesElement__covalent_radius_pyykko": [121.0, 125.0], "includesElement__covalent_radius_pyykko_double": [114.0, 110.0], "includesElement__covalent_radius_pyykko_triple": [106.0], "includesElement__density": [5.75, 12.4], "includesElement__dipole_polarizability": [30.0, 66.0], "includesElement__dipole_polarizability_unc": [1.0, 10.0], "includesElement__electron_affinity": [0.804, 1.137], "includesElement__electronegativity_allred-rochow": [0.0004302985, 0.0002176], "includesElement__electronegativity_cottrell-sutton": [0.22818, 0.1649242], "includesElement__electronegativity_ghosh": [0.2068208, 0.1408379], "includesElement__electronegativity_gordy": [0.05206612, 0.0272], "includesElement__electronegativity_mulliken": [5.2965, 4.29795], "includesElement__electronegativity_nagle": [0.5503212, 0.5147142], "includesElement__electronegativity_pauling": [2.18, 2.28], "includesElement__electronegativity_sanderson": [0.8253373, 0.9761915], "includesElement__en_ghosh": [0.2068208, 0.1408379], "includesElement__en_pauling": [2.18, 2.28], "includesElement__evaporation_heat": [32.4, 494.0], "includesElement__glawe_number": [90, 63], "includesElement__group_id": [15, 9], "includesElement__heat_of_formation": [302.5, 556.0], "includesElement__is_radioactive": [false], "includesElement__lattice_constant": [4.13, 3.8], "includesElement__mendeleev_number": [95, 64], "includesElement__molar_heat_capacity": [24.64, 24.98], "includesElement__period": [4, 5], "includesElement__pettifor_number": [89, 66], "includesElement__specific_heat_capacity": [0.329, 0.243], "includesElement__vdw_radius": [185.0, 210.0], "includesElement__vdw_radius_alvarez": [188.0, 244.0], "includesElement__vdw_radius_mm3": [236.0, 234.0], "includesElement__vdw_radius_uff": [423.0, 292.9], "includesElement__abundance_sea": [0.0037], "includesElement__atomic_weight_uncertainty": [6e-06, 2e-05], "includesElement__c6_gb": [260.0, 708.0], "includesElement__covalent_radius_bragg": [126.0], "includesElement__electronegativity_allen": [13.08, 9.259], "includesElement__en_allen": [13.08, 9.259], "includesElement__metallic_radius": [121.0, 125.0], "includesElement__metallic_radius_c12": [148.0, 134.0], "includesElement__vdw_radius_batsanov": [205.0, 200.0], "includesElement__c6": [246.0], "includesElement__is_monoisotopic": [true], "includesElement__vdw_radius_dreiding": [415.0], "includesElement__vdw_radius_bondi": [185.0], "includesElement__discovery_year": [1803], "includesElement__fusion_heat": [21.8], "includesElement__thermal_conductivity": [150.0], "includesElement__gas_basicity": [745.4], "includesElement__proton_affinity": [768.0], "formula": ["As1Rh2"], "spacegroup": ["225"], "thermalConductivity": [8.29395], "icsd": ["43362"], "band_gap": [0.0], "density": [10.08211], "density_atomic": [15.41237], "deprecated": [false], "efermi": [6.857601], "energy_above_hull": [0.0], "energy_per_atom": [-21.52316], "formation_energy_per_atom": [-0.529835], "homogeneous_poisson": [0.333], "is_gap_direct": [false], "is_magnetic": [false], "is_metal": [true], "is_stable": [true], "nelements": [2], "nsites": [3], "num_magnetic_sites": [0], "num_unique_magnetic_sites": [0], "theoretical": [false], "total_magnetization": [1e-07], "total_magnetization_normalized_formula_units": [1e-07], "total_magnetization_normalized_vol": [2.162765e-09], "uncorrected_energy_per_atom": [-21.52316], "universal_anisotropy": [0.83], "volume": [46.2371], "equilibrium_reaction_energy_per_atom": [-0.2435386]}