{"includesElement": ["", "K", "Mn", "Te"], "includesElement___series_id": [3, 8, 5], "includesElement__abundance_crust": [20900.0, 950.0, 0.001], "includesElement__atomic_number": [19, 25, 52], "includesElement__atomic_radius": [220.0, 140.0], "includesElement__atomic_radius_rahm": [234.0, 242.0], "includesElement__atomic_volume": [45.3, 7.39, 20.5], "includesElement__atomic_weight": [39.0983, 54.93804, 127.6], "includesElement__covalent_radius_cordero": [203.0, 150.0, 138.0], "includesElement__covalent_radius_pyykko": [196.0, 119.0, 136.0], "includesElement__covalent_radius_pyykko_double": [193.0, 105.0, 128.0], "includesElement__density": [0.89, 7.3, 6.232], "includesElement__dipole_polarizability": [289.7, 68.0, 38.0], "includesElement__dipole_polarizability_unc": [0.3, 9.0, 4.0], "includesElement__discovery_year": [1807, 1774, 1782], "includesElement__electron_affinity": [0.50147, 1.970876], "includesElement__electronegativity_allred-rochow": [5.726781e-05, 0.0002542193, 0.0003757569], "includesElement__electronegativity_cottrell-sutton": [0.1059457, 0.1739313, 0.2260596], "includesElement__electronegativity_ghosh": [0.0981896, 0.1352844, 0.2056992], "includesElement__electronegativity_gordy": [0.01122449, 0.0302521, 0.05110294], "includesElement__electronegativity_mulliken": [2.421067, 3.717009, 5.490268], "includesElement__electronegativity_nagle": [0.1511299, 0.4686656, 0.5404919], "includesElement__electronegativity_pauling": [0.82, 1.55, 2.1], "includesElement__electronegativity_sanderson": [0.1218383, 0.6707264, 0.8622506], "includesElement__en_ghosh": [0.0981896, 0.1352844, 0.2056992], "includesElement__en_pauling": [0.82, 1.55, 2.1], "includesElement__evaporation_heat": [2.33, 221.0, 49.8], "includesElement__fusion_heat": [102.5, 13.4, 17.91], "includesElement__glawe_number": [10, 72, 94], "includesElement__group_id": [1, 7, 16], "includesElement__heat_of_formation": [89.0, 283.3, 196.6], "includesElement__is_radioactive": [false], "includesElement__lattice_constant": [5.23, 8.89, 4.45], "includesElement__mendeleev_number": [3, 55, 102], "includesElement__molar_heat_capacity": [29.6, 26.32, 25.73], "includesElement__period": [4, 5], "includesElement__pettifor_number": [10, 60, 92], "includesElement__specific_heat_capacity": [0.757, 0.479, 0.202], "includesElement__vdw_radius": [275.0, 205.0, 206.0], "includesElement__vdw_radius_alvarez": [273.0, 245.0, 199.0], "includesElement__vdw_radius_mm3": [309.0, 224.0, 244.0], "includesElement__vdw_radius_uff": [381.2, 296.1, 447.0], "includesElement__abundance_sea": [399.0, 0.0002], "includesElement__atomic_weight_uncertainty": [0.0001, 3e-06, 0.03], "includesElement__c6_gb": [3910.0, 635.0, 471.0], "includesElement__covalent_radius_bragg": [207.0, 147.0, 133.0], "includesElement__electronegativity_allen": [4.34, 10.34, 12.76], "includesElement__en_allen": [4.34, 10.34, 12.76], "includesElement__metallic_radius": [203.0, 118.0, 137.0], "includesElement__metallic_radius_c12": [235.0, 127.0, 160.0], "includesElement__thermal_conductivity": [79.0, 14.3], "includesElement__vdw_radius_batsanov": [280.0, 205.0, 210.0], "includesElement__c6": [3923.0, 552.0, 445.0], "includesElement__vdw_radius_bondi": [275.0, 206.0], "includesElement__covalent_radius_pyykko_triple": [103.0, 121.0], "includesElement__is_monoisotopic": [true], "includesElement__gas_basicity": [774.4], "includesElement__proton_affinity": [797.3], "includesElement__vdw_radius_dreiding": [423.0], "formula": ["K1Mn1Te2"], "spacegroup": ["119"], "thermalConductivity": [0.9123], "icsd": ["87983"], "band_gap": [0.0], "density": [4.305244], "density_atomic": [33.67524], "deprecated": [false], "efermi": [2.844842], "energy_above_hull": [0.07865228], "energy_per_atom": [-18.65148], "formation_energy_per_atom": [-0.7674666], "is_gap_direct": [false], "is_magnetic": [true], "is_metal": [true], "is_stable": [false], "nelements": [3], "nsites": [4], "num_magnetic_sites": [1], "num_unique_magnetic_sites": [1], "theoretical": [false], "total_magnetization": [3.999702], "total_magnetization_normalized_formula_units": [3.999702], "total_magnetization_normalized_vol": [0.02969319], "uncorrected_energy_per_atom": [-4.603352], "volume": [134.701]}