{"includesElement": ["", "As", "Ir"], "includesElement___series_id": [5, 8], "includesElement__abundance_crust": [1.8, 0.001], "includesElement__atomic_number": [33, 77], "includesElement__atomic_radius": [115.0, 135.0], "includesElement__atomic_radius_rahm": [231.0, 240.0], "includesElement__atomic_volume": [13.1, 8.54], "includesElement__atomic_weight": [74.92159, 192.217], "includesElement__covalent_radius_cordero": [119.0, 141.0], "includesElement__covalent_radius_pyykko": [121.0, 122.0], "includesElement__covalent_radius_pyykko_double": [114.0, 115.0], "includesElement__covalent_radius_pyykko_triple": [106.0, 107.0], "includesElement__density": [5.75, 22.5622], "includesElement__dipole_polarizability": [30.0, 54.0], "includesElement__dipole_polarizability_unc": [1.0, 7.0], "includesElement__electron_affinity": [0.804, 1.5638], "includesElement__electronegativity_allred-rochow": [0.0004302985, 0.0002620263], "includesElement__electronegativity_cottrell-sutton": [0.22818, 0.1787938], "includesElement__electronegativity_ghosh": [0.2068208, 0.25106], "includesElement__electronegativity_gordy": [0.05206612, 0.03196721], "includesElement__electronegativity_mulliken": [5.2965, 5.26541], "includesElement__electronegativity_nagle": [0.5503212], "includesElement__electronegativity_pauling": [2.18, 2.2], "includesElement__electronegativity_sanderson": [0.8253373, 1.475998], "includesElement__en_ghosh": [0.2068208, 0.25106], "includesElement__en_pauling": [2.18, 2.2], "includesElement__evaporation_heat": [32.4, 604.0], "includesElement__glawe_number": [90, 62], "includesElement__group_id": [15, 9], "includesElement__heat_of_formation": [302.5, 669.0], "includesElement__is_radioactive": [false], "includesElement__lattice_constant": [4.13, 3.84], "includesElement__mendeleev_number": [95, 65], "includesElement__molar_heat_capacity": [24.64, 25.1], "includesElement__period": [4, 6], "includesElement__pettifor_number": [89, 65], "includesElement__specific_heat_capacity": [0.329, 0.131], "includesElement__vdw_radius": [185.0, 213.0], "includesElement__vdw_radius_alvarez": [188.0, 241.0], "includesElement__vdw_radius_mm3": [236.0], "includesElement__vdw_radius_uff": [423.0, 284.0], "includesElement__abundance_sea": [0.0037], "includesElement__atomic_weight_uncertainty": [6e-06, 0.003], "includesElement__c6_gb": [260.0, 522.0], "includesElement__covalent_radius_bragg": [126.0], "includesElement__electronegativity_allen": [13.08, 9.96], "includesElement__en_allen": [13.08, 9.96], "includesElement__metallic_radius": [121.0, 127.0], "includesElement__metallic_radius_c12": [148.0, 136.0], "includesElement__vdw_radius_batsanov": [205.0, 200.0], "includesElement__c6": [246.0], "includesElement__is_monoisotopic": [true], "includesElement__vdw_radius_dreiding": [415.0], "includesElement__vdw_radius_bondi": [185.0], "includesElement__discovery_year": [1804], "includesElement__fusion_heat": [27.61], "includesElement__thermal_conductivity": [147.0], "formula": ["As12Ir4"], "spacegroup": ["204"], "thermalConductivity": [4.27943, 4.27824, 4.27218], "icsd": ["15457", "34046", "610737"], "band_gap": [0.0268], "density": [8.960762], "density_atomic": [19.31796], "deprecated": [false], "efermi": [6.361485], "energy_above_hull": [0.0], "energy_per_atom": [-24.62876], "formation_energy_per_atom": [-0.5082685], "homogeneous_poisson": [0.232], "is_gap_direct": [true], "is_magnetic": [false], "is_metal": [false], "is_stable": [true], "nelements": [2], "nsites": [16], "num_magnetic_sites": [0], "num_unique_magnetic_sites": [0], "theoretical": [false], "total_magnetization": [0.0], "total_magnetization_normalized_formula_units": [0.0], "total_magnetization_normalized_vol": [0.0], "uncorrected_energy_per_atom": [-24.62876], "universal_anisotropy": [0.024], "volume": [309.0874], "cbm": [6.3773], "equilibrium_reaction_energy_per_atom": [-0.07996384], "vbm": [6.3505]}