{"includesElement": ["", "Ba", "O", "Pb"], "includesElement___series_id": [4, 1, 7], "includesElement__abundance_crust": [425.0, 461000.0, 14.0], "includesElement__atomic_number": [56, 8, 82], "includesElement__atomic_radius": [215.0, 60.0, 180.0], "includesElement__atomic_radius_rahm": [293.0, 171.0, 249.0], "includesElement__atomic_volume": [39.0, 14.0, 18.3], "includesElement__atomic_weight": [137.327, 15.999, 207.2], "includesElement__covalent_radius_cordero": [215.0, 66.0, 146.0], "includesElement__covalent_radius_pyykko": [196.0, 63.0, 144.0], "includesElement__covalent_radius_pyykko_double": [161.0, 57.0, 135.0], "includesElement__covalent_radius_pyykko_triple": [149.0, 53.0, 137.0], "includesElement__density": [3.62, 0.001308, 11.3], "includesElement__dipole_polarizability": [272.0, 5.3, 47.0], "includesElement__dipole_polarizability_unc": [10.0, 0.2, 3.0], "includesElement__discovery_year": [1808, 1774], "includesElement__electron_affinity": [0.14462, 1.461113, 0.3567432], "includesElement__electronegativity_allred-rochow": [7.418784e-05, 0.001146384, 0.000272473], "includesElement__electronegativity_cottrell-sutton": [0.1205853, 0.2687419, 0.1980811], "includesElement__electronegativity_ghosh": [0.1586786, 0.304575, 0.177911], "includesElement__electronegativity_gordy": [0.01454082, 0.07222222, 0.03923611], "includesElement__electronegativity_mulliken": [2.678142, 7.539584, 3.886711], "includesElement__electronegativity_nagle": [0.1944556, 1.042218, 0.4398663], "includesElement__electronegativity_pauling": [0.89, 3.44, 1.8], "includesElement__electronegativity_sanderson": [0.3032951, 0.9416494, 0.9313226], "includesElement__en_ghosh": [0.1586786, 0.304575, 0.177911], "includesElement__en_pauling": [0.89, 3.44, 1.8], "includesElement__evaporation_heat": [142.0, 177.8], "includesElement__fusion_heat": [7.66, 4.77], "includesElement__glawe_number": [14, 97, 82], "includesElement__group_id": [2, 16, 14], "includesElement__heat_of_formation": [179.1, 249.229, 195.2], "includesElement__is_radioactive": [false], "includesElement__lattice_constant": [5.02, 6.83, 4.95], "includesElement__mendeleev_number": [9, 99, 91], "includesElement__molar_heat_capacity": [28.07, 29.378, 26.84], "includesElement__period": [6, 2], "includesElement__pettifor_number": [14, 101, 82], "includesElement__specific_heat_capacity": [0.204, 0.918, 0.13], "includesElement__vdw_radius": [268.0, 152.0, 202.0], "includesElement__vdw_radius_alvarez": [303.0, 150.0, 260.0], "includesElement__vdw_radius_mm3": [307.0, 182.0, 274.0], "includesElement__vdw_radius_uff": [370.3, 350.0, 429.7], "includesElement__abundance_sea": [0.013, 857000.0, 3e-05], "includesElement__atomic_weight_uncertainty": [0.007, 0.1], "includesElement__c6_gb": [5540.0, 16.7, 534.0], "includesElement__covalent_radius_bragg": [210.0, 65.0], "includesElement__electronegativity_allen": [5.211, 21.36, 10.97], "includesElement__en_allen": [5.211, 21.36, 10.97], "includesElement__metallic_radius": [198.0, 150.0], "includesElement__metallic_radius_c12": [222.0, 170.0], "includesElement__vdw_radius_batsanov": [270.0, 155.0, 230.0], "includesElement__vdw_radius_truhlar": [268.0], "includesElement__thermal_conductivity": [0.027, 35.3], "includesElement__c6": [15.6], "includesElement__vdw_radius_dreiding": [340.46], "includesElement__gas_basicity": [459.6], "includesElement__proton_affinity": [485.2], "includesElement__vdw_radius_bondi": [152.0, 202.0], "includesElement__vdw_radius_rt": [158.0], "formula": ["Ba3O1Pb1"], "spacegroup": ["221"], "thermalConductivity": [2.4635], "icsd": ["100791"], "band_gap": [0.0], "density": [6.2646], "density_atomic": [33.67308], "deprecated": [false], "efermi": [3.695062], "energy_above_hull": [0.0], "energy_per_atom": [-4.375894], "formation_energy_per_atom": [-1.491527], "is_gap_direct": [false], "is_magnetic": [false], "is_metal": [true], "is_stable": [true], "nelements": [3], "nsites": [5], "num_magnetic_sites": [0], "num_unique_magnetic_sites": [0], "theoretical": [false], "total_magnetization": [2.5e-06], "total_magnetization_normalized_formula_units": [2.5e-06], "total_magnetization_normalized_vol": [1.484866e-08], "uncorrected_energy_per_atom": [-29.8757], "volume": [168.3654], "equilibrium_reaction_energy_per_atom": [-0.03816152]}