{"includesElement": ["", "Bi", "Zr", "Co"], "includesElement___series_id": [7, 8], "includesElement__abundance_crust": [0.0085, 165.0, 25.0], "includesElement__atomic_number": [83, 40, 27], "includesElement__atomic_radius": [160.0, 155.0, 135.0], "includesElement__atomic_radius_rahm": [250.0, 269.0, 233.0], "includesElement__atomic_volume": [21.3, 14.1, 6.7], "includesElement__atomic_weight": [208.9804, 91.224, 58.93319], "includesElement__covalent_radius_cordero": [148.0, 175.0, 138.0], "includesElement__covalent_radius_pyykko": [151.0, 154.0, 111.0], "includesElement__covalent_radius_pyykko_double": [141.0, 127.0, 103.0], "includesElement__covalent_radius_pyykko_triple": [135.0, 121.0, 96.0], "includesElement__density": [9.79, 6.52, 8.86], "includesElement__dipole_polarizability": [48.0, 112.0, 55.0], "includesElement__dipole_polarizability_unc": [4.0, 13.0], "includesElement__electron_affinity": [0.942362, 0.426, 0.6622565], "includesElement__electronegativity_allred-rochow": [0.0002763037, 0.0001328217, 0.0003165327], "includesElement__electronegativity_cottrell-sutton": [0.2042593, 0.1430194, 0.1874437], "includesElement__electronegativity_ghosh": [0.182377, 0.1248887, 0.1432363], "includesElement__electronegativity_gordy": [0.04172185, 0.02045455, 0.03513514], "includesElement__electronegativity_mulliken": [4.113939, 3.52995, 4.271633], "includesElement__electronegativity_nagle": [0.470518, 0.3293169, 0.5469655], "includesElement__electronegativity_pauling": [1.9, 1.33, 1.88], "includesElement__electronegativity_sanderson": [0.8136501, 0.4744467, 0.8832424], "includesElement__en_ghosh": [0.182377, 0.1248887, 0.1432363], "includesElement__en_pauling": [1.9, 1.33, 1.88], "includesElement__evaporation_heat": [172.0, 567.0, 389.1], "includesElement__fusion_heat": [11.0, 19.2, 15.48], "includesElement__glawe_number": [92, 49, 70], "includesElement__group_id": [15, 4, 9], "includesElement__heat_of_formation": [209.6, 610.0, 426.7], "includesElement__is_radioactive": [false], "includesElement__lattice_constant": [4.75, 3.23, 2.51], "includesElement__mendeleev_number": [97, 44, 63], "includesElement__molar_heat_capacity": [25.52, 25.36, 24.81], "includesElement__period": [6, 5, 4], "includesElement__pettifor_number": [87, 49, 64], "includesElement__specific_heat_capacity": [0.122, 0.278, 0.421], "includesElement__vdw_radius": [207.0, 223.0, 200.0], "includesElement__vdw_radius_alvarez": [254.0, 252.0, 240.0], "includesElement__vdw_radius_mm3": [266.0, 254.0, 223.0], "includesElement__vdw_radius_uff": [437.0, 312.4, 287.2], "includesElement__abundance_sea": [2e-05, 3e-05], "includesElement__atomic_weight_uncertainty": [1e-05, 0.002, 4e-06], "includesElement__c6_gb": [513.0, 1360.0, 461.0], "includesElement__covalent_radius_bragg": [148.0, 137.0], "includesElement__electronegativity_allen": [11.9, 7.808, 10.86], "includesElement__en_allen": [11.9, 7.808, 10.86], "includesElement__metallic_radius": [151.0, 145.0, 116.0], "includesElement__metallic_radius_c12": [178.0, 160.0, 125.0], "includesElement__thermal_conductivity": [7.9, 22.7, 100.0], "includesElement__vdw_radius_batsanov": [230.0, 200.0], "includesElement__is_monoisotopic": [true], "includesElement__vdw_radius_truhlar": [207.0], "includesElement__discovery_year": [1789, 1739], "includesElement__c6": [408.0], "includesElement__gas_basicity": [719.8], "includesElement__proton_affinity": [742.7], "formula": ["Bi1Co1Zr1", "ZrCoBi"], "mp_id": ["31451"], "spacegroup": ["216"], "thermalConductivity": [9.04135, 17.68], "icsd": ["107120"], "band_gap": [0.9772], "density": [10.06702], "density_atomic": [19.7464], "deprecated": [false], "efermi": [5.94056], "energy_above_hull": [0.0], "energy_per_atom": [-6.936332], "formation_energy_per_atom": [-0.4291301], "homogeneous_poisson": [0.277], "is_gap_direct": [false], "is_magnetic": [false], "is_metal": [false], "is_stable": [true], "nelements": [3], "nsites": [3], "num_magnetic_sites": [0], "num_unique_magnetic_sites": [0], "theoretical": [false], "total_magnetization": [0.0], "total_magnetization_normalized_formula_units": [0.0], "total_magnetization_normalized_vol": [0.0], "uncorrected_energy_per_atom": [-31.91849], "universal_anisotropy": [0.318], "volume": [59.23919], "cbm": [6.8083], "e_electronic": [20.93949], "e_ionic": [9.83447], "e_total": [30.77396], "equilibrium_reaction_energy_per_atom": [-0.1278277], "n": [4.575969], "vbm": [5.8311], "e_ij_max": [0.6728965]}