{"includesElement": ["", "Ag", "O", "Pb"], "includesElement___series_id": [8, 1, 7], "includesElement__abundance_crust": [0.075, 461000.0, 14.0], "includesElement__atomic_number": [47, 8, 82], "includesElement__atomic_radius": [160.0, 60.0, 180.0], "includesElement__atomic_radius_rahm": [225.0, 171.0, 249.0], "includesElement__atomic_volume": [10.3, 14.0, 18.3], "includesElement__atomic_weight": [107.8682, 15.999, 207.2], "includesElement__covalent_radius_cordero": [145.0, 66.0, 146.0], "includesElement__covalent_radius_pyykko": [128.0, 63.0, 144.0], "includesElement__covalent_radius_pyykko_double": [139.0, 57.0, 135.0], "includesElement__covalent_radius_pyykko_triple": [137.0, 53.0], "includesElement__density": [10.5, 0.001308, 11.3], "includesElement__dipole_polarizability": [55.0, 5.3, 47.0], "includesElement__dipole_polarizability_unc": [8.0, 0.2, 3.0], "includesElement__electron_affinity": [1.302, 1.461113, 0.3567432], "includesElement__electronegativity_allred-rochow": [0.0002258301, 0.001146384, 0.000272473], "includesElement__electronegativity_cottrell-sutton": [0.1700184, 0.2687419, 0.1980811], "includesElement__electronegativity_ghosh": [0.1472165, 0.304575, 0.177911], "includesElement__electronegativity_gordy": [0.02890625, 0.07222222, 0.03923611], "includesElement__electronegativity_mulliken": [4.439117, 7.539584, 3.886711], "includesElement__electronegativity_nagle": [0.5848035, 1.042218, 0.4398663], "includesElement__electronegativity_pauling": [1.93, 3.44, 1.8], "includesElement__electronegativity_sanderson": [0.9437955, 0.9416494, 0.9313226], "includesElement__en_ghosh": [0.1472165, 0.304575, 0.177911], "includesElement__en_pauling": [1.93, 3.44, 1.8], "includesElement__evaporation_heat": [254.1, 177.8], "includesElement__fusion_heat": [11.95, 4.77], "includesElement__glawe_number": [67, 97, 82], "includesElement__group_id": [11, 16, 14], "includesElement__heat_of_formation": [284.9, 249.229, 195.2], "includesElement__is_radioactive": [false], "includesElement__lattice_constant": [4.09, 6.83, 4.95], "includesElement__mendeleev_number": [72, 99, 91], "includesElement__molar_heat_capacity": [25.35, 29.378, 26.84], "includesElement__period": [5, 2, 6], "includesElement__pettifor_number": [71, 101, 82], "includesElement__specific_heat_capacity": [0.235, 0.918, 0.13], "includesElement__vdw_radius": [211.0, 152.0, 202.0], "includesElement__vdw_radius_alvarez": [253.0, 150.0, 260.0], "includesElement__vdw_radius_mm3": [243.0, 182.0, 274.0], "includesElement__vdw_radius_uff": [314.8, 350.0, 429.7], "includesElement__abundance_sea": [4e-05, 857000.0, 3e-05], "includesElement__atomic_weight_uncertainty": [0.0002, 0.1], "includesElement__c6_gb": [341.0, 16.7, 534.0], "includesElement__covalent_radius_bragg": [177.0, 65.0], "includesElement__electronegativity_allen": [11.05, 21.36, 10.97], "includesElement__en_allen": [11.05, 21.36, 10.97], "includesElement__metallic_radius": [134.0, 150.0], "includesElement__metallic_radius_c12": [144.0, 170.0], "includesElement__thermal_conductivity": [429.0, 0.027, 35.3], "includesElement__vdw_radius_batsanov": [210.0, 155.0, 230.0], "includesElement__discovery_year": [1774], "includesElement__c6": [15.6], "includesElement__vdw_radius_dreiding": [340.46], "includesElement__gas_basicity": [459.6], "includesElement__proton_affinity": [485.2], "includesElement__vdw_radius_bondi": [152.0, 202.0], "includesElement__vdw_radius_rt": [158.0], "formula": ["Ag5O6Pb2"], "spacegroup": ["162"], "thermalConductivity": [0.452188], "icsd": ["155043"], "band_gap": [0.0], "density": [8.774491], "density_atomic": [15.28145], "deprecated": [false], "efermi": [3.661763], "energy_above_hull": [0.0], "energy_per_atom": [-4.750548], "formation_energy_per_atom": [-0.8002734], "is_gap_direct": [false], "is_magnetic": [false], "is_metal": [true], "is_stable": [true], "nelements": [3], "nsites": [13], "num_magnetic_sites": [0], "num_unique_magnetic_sites": [0], "theoretical": [false], "total_magnetization": [1e-07], "total_magnetization_normalized_formula_units": [1e-07], "total_magnetization_normalized_vol": [5.033756e-10], "uncorrected_energy_per_atom": [-20.21157], "volume": [198.6588], "equilibrium_reaction_energy_per_atom": [-0.0479526]}