{"includesElement": ["", "Al", "Nb", "C"], "includesElement___series_id": [7, 8, 1], "includesElement__abundance_crust": [82300.0, 20.0, 200.0], "includesElement__atomic_number": [13, 41, 6], "includesElement__atomic_radius": [125.0, 145.0, 70.0], "includesElement__atomic_radius_rahm": [239.0, 251.0, 190.0], "includesElement__atomic_volume": [10.0, 10.8, 5.3], "includesElement__atomic_weight": [26.98154, 92.90637, 12.011], "includesElement__covalent_radius_cordero": [121.0, 164.0, 73.0], "includesElement__covalent_radius_pyykko": [126.0, 147.0, 75.0], "includesElement__covalent_radius_pyykko_double": [113.0, 125.0, 67.0], "includesElement__covalent_radius_pyykko_triple": [111.0, 116.0, 60.0], "includesElement__density": [2.7, 8.57, 2.2], "includesElement__dipole_polarizability": [57.8, 98.0, 11.3], "includesElement__dipole_polarizability_unc": [1.0, 8.0, 0.2], "includesElement__discovery_year": [1825, 1801], "includesElement__electron_affinity": [0.43283, 0.917406, 1.262119], "includesElement__electronegativity_allred-rochow": [0.0002204586, 0.0001295756, 0.0005777778], "includesElement__electronegativity_cottrell-sutton": [0.1666667, 0.1380131, 0.2081666], "includesElement__electronegativity_ghosh": [0.150078, 0.1280782, 0.224776], "includesElement__electronegativity_gordy": [0.02777778, 0.01904762, 0.04333333], "includesElement__electronegativity_mulliken": [3.209299, 3.838128, 6.261208], "includesElement__electronegativity_nagle": [0.3730192, 0.3708924, 0.7073926], "includesElement__electronegativity_pauling": [1.61, 1.6, 2.55], "includesElement__electronegativity_sanderson": [0.2360927, 0.5561695, 0.427525], "includesElement__en_ghosh": [0.150078, 0.1280782, 0.224776], "includesElement__en_pauling": [1.61, 1.6, 2.55], "includesElement__evaporation_heat": [284.1, 680.0], "includesElement__fusion_heat": [10.75, 26.8], "includesElement__glawe_number": [78, 53, 87], "includesElement__group_id": [13, 5, 14], "includesElement__heat_of_formation": [330.9, 733.0, 716.87], "includesElement__is_radioactive": [false], "includesElement__lattice_constant": [4.05, 3.3, 3.57], "includesElement__mendeleev_number": [82, 48, 87], "includesElement__molar_heat_capacity": [24.2, 24.6, 8.517], "includesElement__period": [3, 5, 2], "includesElement__pettifor_number": [80, 52, 95], "includesElement__specific_heat_capacity": [0.897, 0.265, 0.709], "includesElement__vdw_radius": [184.0, 218.0, 170.0], "includesElement__vdw_radius_alvarez": [225.0, 256.0, 177.0], "includesElement__vdw_radius_mm3": [236.0, 243.0, 204.0], "includesElement__vdw_radius_uff": [449.9, 316.5, 385.1], "includesElement__abundance_sea": [0.002, 1e-05, 28.0], "includesElement__atomic_weight_uncertainty": [7e-07, 2e-05], "includesElement__c6_gb": [520.0, 1140.0, 47.9], "includesElement__covalent_radius_bragg": [135.0, 77.0], "includesElement__electronegativity_allen": [9.539, 8.34, 15.05], "includesElement__en_allen": [9.539, 8.34, 15.05], "includesElement__metallic_radius": [125.0, 134.0], "includesElement__metallic_radius_c12": [143.0, 146.0, 86.0], "includesElement__thermal_conductivity": [237.0, 53.7, 1.59], "includesElement__vdw_radius_batsanov": [210.0, 215.0, 170.0], "includesElement__c6": [528.0, 46.6], "includesElement__is_monoisotopic": [true], "includesElement__vdw_radius_dreiding": [439.0, 389.83], "includesElement__vdw_radius_truhlar": [184.0], "includesElement__vdw_radius_bondi": [170.0], "includesElement__vdw_radius_rt": [177.0], "formula": ["Al2C6Nb8"], "spacegroup": ["194"], "thermalConductivity": [16.1102], "icsd": ["160754"], "band_gap": [0.0], "density": [6.848878], "density_atomic": [13.17251], "deprecated": [false], "efermi": [6.803499], "energy_above_hull": [0.00680752], "energy_per_atom": [-9.498616], "formation_energy_per_atom": [-0.5190169], "homogeneous_poisson": [0.223], "is_gap_direct": [false], "is_magnetic": [false], "is_metal": [true], "is_stable": [false], "nelements": [3], "nsites": [16], "num_magnetic_sites": [0], "num_unique_magnetic_sites": [0], "theoretical": [false], "total_magnetization": [0.0011126], "total_magnetization_normalized_formula_units": [0.0005563], "total_magnetization_normalized_vol": [5.278986e-06], "uncorrected_energy_per_atom": [-9.498616], "universal_anisotropy": [0.067], "volume": [210.7602]}