{"includesElement": ["", "Sb", "Li", "Au"], "includesElement___series_id": [5, 3, 8], "includesElement__abundance_crust": [0.2, 20.0, 0.004], "includesElement__atomic_number": [51, 3, 79], "includesElement__atomic_radius": [145.0, 135.0], "includesElement__atomic_radius_rahm": [246.0, 220.0, 226.0], "includesElement__atomic_volume": [18.4, 13.1, 10.2], "includesElement__atomic_weight": [121.76, 6.94, 196.9666], "includesElement__covalent_radius_cordero": [139.0, 128.0, 136.0], "includesElement__covalent_radius_pyykko": [140.0, 133.0, 124.0], "includesElement__covalent_radius_pyykko_double": [133.0, 124.0, 121.0], "includesElement__covalent_radius_pyykko_triple": [127.0, 123.0], "includesElement__density": [6.68, 0.534, 19.3], "includesElement__dipole_polarizability": [43.0, 164.1125, 36.0], "includesElement__dipole_polarizability_unc": [2.0, 0.0005, 3.0], "includesElement__electron_affinity": [1.046, 0.618049, 2.30863], "includesElement__electronegativity_allred-rochow": [0.0003214286, 7.3492e-05, 0.0002406348], "includesElement__electronegativity_cottrell-sutton": [0.212132, 0.09886575, 0.1727388], "includesElement__electronegativity_ghosh": [0.1918774, 0.105093, 0.26137], "includesElement__electronegativity_gordy": [0.045, 0.009774436, 0.02983871], "includesElement__electronegativity_mulliken": [4.827195, 3.004882, 5.767091], "includesElement__electronegativity_nagle": [0.4880907, 0.1826499, 0.67354], "includesElement__electronegativity_pauling": [2.05, 0.98, 2.4], "includesElement__electronegativity_sanderson": [0.7762722, 0.04886793, 1.426701], "includesElement__en_ghosh": [0.1918774, 0.105093, 0.26137], "includesElement__en_pauling": [2.05, 0.98, 2.4], "includesElement__evaporation_heat": [195.2, 148.0, 340.0], "includesElement__fusion_heat": [20.08, 2.89, 12.68], "includesElement__glawe_number": [91, 12, 66], "includesElement__group_id": [15, 1, 11], "includesElement__heat_of_formation": [264.4, 159.3, 368.2], "includesElement__is_radioactive": [false], "includesElement__lattice_constant": [4.51, 3.49, 4.08], "includesElement__mendeleev_number": [96, 1, 73], "includesElement__molar_heat_capacity": [25.23, 24.86, 25.418], "includesElement__period": [5, 2, 6], "includesElement__pettifor_number": [88, 12, 70], "includesElement__specific_heat_capacity": [0.207, 3.582, 0.129], "includesElement__vdw_radius": [206.0, 182.0, 214.0], "includesElement__vdw_radius_alvarez": [247.0, 212.0, 232.0], "includesElement__vdw_radius_mm3": [252.0, 255.0, 243.0], "includesElement__vdw_radius_uff": [442.0, 245.1, 329.3], "includesElement__abundance_sea": [0.00024, 0.18, 4e-06], "includesElement__atomic_weight_uncertainty": [0.001, 5e-06], "includesElement__c6_gb": [504.0, 1410.0, 427.0], "includesElement__covalent_radius_bragg": [140.0, 150.0], "includesElement__electronegativity_allen": [11.74, 5.392, 11.33], "includesElement__en_allen": [11.74, 5.392, 11.33], "includesElement__metallic_radius": [139.0, 123.0, 134.0], "includesElement__metallic_radius_c12": [166.0, 155.0, 144.0], "includesElement__thermal_conductivity": [24.43, 84.8, 318.0], "includesElement__vdw_radius_batsanov": [220.0, 210.0], "includesElement__c6": [492.0, 1392.0], "includesElement__vdw_radius_dreiding": [435.0], "includesElement__vdw_radius_truhlar": [206.0], "includesElement__discovery_year": [1817], "includesElement__vdw_radius_bondi": [181.0], "includesElement__is_monoisotopic": [true], "formula": ["Au1Li2Sb1"], "spacegroup": ["216"], "thermalConductivity": [1.33941], "icsd": ["58529"], "band_gap": [0.0], "density": [7.875635], "density_atomic": [17.53222], "deprecated": [false], "efermi": [6.056616], "energy_above_hull": [0.0], "energy_per_atom": [-20.86623], "formation_energy_per_atom": [-0.6000528], "homogeneous_poisson": [0.323], "is_gap_direct": [false], "is_magnetic": [false], "is_metal": [true], "is_stable": [true], "nelements": [3], "nsites": [4], "num_magnetic_sites": [0], "num_unique_magnetic_sites": [0], "theoretical": [false], "total_magnetization": [4e-07], "total_magnetization_normalized_formula_units": [4e-07], "total_magnetization_normalized_vol": [5.703783e-09], "uncorrected_energy_per_atom": [-20.86623], "universal_anisotropy": [8.412], "volume": [70.12889], "equilibrium_reaction_energy_per_atom": [-0.04885412]}