{"includesElement": ["", "Hg", "Cu", "Zr"], "includesElement___series_id": [8], "includesElement__abundance_crust": [0.085, 60.0, 165.0], "includesElement__atomic_number": [80, 29, 40], "includesElement__atomic_radius": [150.0, 135.0, 155.0], "includesElement__atomic_radius_rahm": [229.0, 217.0, 269.0], "includesElement__atomic_volume": [14.8, 7.1, 14.1], "includesElement__atomic_weight": [200.592, 63.546, 91.224], "includesElement__covalent_radius_cordero": [132.0, 175.0], "includesElement__covalent_radius_pyykko": [133.0, 112.0, 154.0], "includesElement__covalent_radius_pyykko_double": [142.0, 115.0, 127.0], "includesElement__density": [13.5336, 8.96, 6.52], "includesElement__dipole_polarizability": [33.91, 46.5, 112.0], "includesElement__dipole_polarizability_unc": [0.34, 0.5, 13.0], "includesElement__electronegativity_allred-rochow": [0.0002459155, 0.0002949617, 0.0001328217], "includesElement__electronegativity_cottrell-sutton": [0.1808501, 0.1817573, 0.1430194], "includesElement__electronegativity_ghosh": [0.169, 0.1511716, 0.1248887], "includesElement__electronegativity_gordy": [0.03270677, 0.03303571, 0.02045455], "includesElement__electronegativity_mulliken": [5.218752, 4.48069, 3.52995], "includesElement__electronegativity_nagle": [0.7073231, 0.6184623, 0.3293169], "includesElement__electronegativity_pauling": [1.9, 1.33], "includesElement__electronegativity_sanderson": [1.164789, 0.9175542, 0.4744467], "includesElement__en_ghosh": [0.169, 0.1511716, 0.1248887], "includesElement__en_pauling": [1.9, 1.33], "includesElement__evaporation_heat": [58.5, 304.6, 567.0], "includesElement__fusion_heat": [2.295, 13.01, 19.2], "includesElement__glawe_number": [76, 68, 49], "includesElement__group_id": [12, 11, 4], "includesElement__heat_of_formation": [61.38, 337.4, 610.0], "includesElement__is_radioactive": [false], "includesElement__lattice_constant": [2.99, 3.61, 3.23], "includesElement__mendeleev_number": [79, 71, 44], "includesElement__molar_heat_capacity": [27.983, 24.44, 25.36], "includesElement__period": [6, 4, 5], "includesElement__pettifor_number": [74, 72, 49], "includesElement__specific_heat_capacity": [0.14, 0.385, 0.278], "includesElement__vdw_radius": [223.0, 196.0], "includesElement__vdw_radius_alvarez": [245.0, 238.0, 252.0], "includesElement__vdw_radius_mm3": [253.0, 226.0, 254.0], "includesElement__vdw_radius_uff": [270.5, 349.5, 312.4], "includesElement__abundance_sea": [3e-05, 0.00025], "includesElement__atomic_weight_uncertainty": [0.003, 0.002], "includesElement__c6_gb": [268.0, 264.0, 1360.0], "includesElement__electronegativity_allen": [10.44, 10.96, 7.808], "includesElement__en_allen": [10.44, 10.96, 7.808], "includesElement__metallic_radius": [139.0, 118.0, 145.0], "includesElement__metallic_radius_c12": [151.0, 128.0, 160.0], "includesElement__thermal_conductivity": [8.3, 401.0, 22.7], "includesElement__vdw_radius_batsanov": [205.0, 200.0, 230.0], "includesElement__covalent_radius_pyykko_triple": [120.0, 121.0], "includesElement__electron_affinity": [1.235, 0.426], "includesElement__covalent_radius_bragg": [137.0], "includesElement__c6": [253.0], "includesElement__gas_basicity": [632.4], "includesElement__proton_affinity": [655.3], "includesElement__discovery_year": [1789], "formula": ["Cu1Hg2Zr1"], "spacegroup": ["216"], "thermalConductivity": [1.01794], "icsd": ["102973"], "band_gap": [0.0], "density": [11.97191], "density_atomic": [19.27798], "deprecated": [false], "efermi": [5.138928], "energy_above_hull": [0.1575414], "energy_per_atom": [-3.271482], "formation_energy_per_atom": [0.04508073], "is_gap_direct": [false], "is_magnetic": [false], "is_metal": [true], "is_stable": [false], "nelements": [3], "nsites": [4], "num_magnetic_sites": [0], "num_unique_magnetic_sites": [0], "theoretical": [false], "total_magnetization": [0.0007525], "total_magnetization_normalized_formula_units": [0.0007525], "total_magnetization_normalized_vol": [9.758542e-06], "uncorrected_energy_per_atom": [-3.271482], "volume": [77.11193]}