{"includesElement": ["", "Bi", "N", "Sr"], "includesElement___series_id": [7, 1, 4], "includesElement__abundance_crust": [0.0085, 19.0, 370.0], "includesElement__atomic_number": [83, 7, 38], "includesElement__atomic_radius": [160.0, 65.0, 200.0], "includesElement__atomic_radius_rahm": [250.0, 179.0, 279.0], "includesElement__atomic_volume": [21.3, 17.3, 33.7], "includesElement__atomic_weight": [208.9804, 14.007, 87.62], "includesElement__covalent_radius_cordero": [148.0, 71.0, 195.0], "includesElement__covalent_radius_pyykko": [151.0, 71.0, 185.0], "includesElement__covalent_radius_pyykko_double": [141.0, 60.0, 157.0], "includesElement__covalent_radius_pyykko_triple": [135.0, 54.0, 139.0], "includesElement__density": [9.79, 0.001145, 2.64], "includesElement__dipole_polarizability": [48.0, 7.4, 197.2], "includesElement__dipole_polarizability_unc": [4.0, 0.2], "includesElement__electron_affinity": [0.942362, -1.4, 0.048], "includesElement__electronegativity_allred-rochow": [0.0002763037, 0.000773656, 8.327246e-05], "includesElement__electronegativity_cottrell-sutton": [0.2042593, 0.2343706, 0.1241185], "includesElement__electronegativity_ghosh": [0.182377, 0.26493, 0.1185082], "includesElement__electronegativity_gordy": [0.04172185, 0.05492958, 0.01540541], "includesElement__electronegativity_mulliken": [4.113939, 6.567065, 2.871434], "includesElement__electronegativity_nagle": [0.470518, 0.8774979, 0.2164584], "includesElement__electronegativity_pauling": [1.9, 3.04, 0.95], "includesElement__electronegativity_sanderson": [0.8136501, 0.577482, 0.2631786], "includesElement__en_ghosh": [0.182377, 0.26493, 0.1185082], "includesElement__en_pauling": [1.9, 3.04, 0.95], "includesElement__evaporation_heat": [172.0, 144.0], "includesElement__fusion_heat": [11.0, 9.2], "includesElement__glawe_number": [92, 88, 15], "includesElement__group_id": [15, 2], "includesElement__heat_of_formation": [209.6, 472.44, 164.0], "includesElement__is_radioactive": [false], "includesElement__lattice_constant": [4.75, 4.039, 6.08], "includesElement__mendeleev_number": [97, 93, 8], "includesElement__molar_heat_capacity": [25.52, 29.124, 26.79], "includesElement__period": [6, 2, 5], "includesElement__pettifor_number": [87, 100, 15], "includesElement__specific_heat_capacity": [0.122, 1.04, 0.306], "includesElement__vdw_radius": [207.0, 155.0, 249.0], "includesElement__vdw_radius_alvarez": [254.0, 166.0, 284.0], "includesElement__vdw_radius_mm3": [266.0, 193.0, 300.0], "includesElement__vdw_radius_uff": [437.0, 366.0, 364.1], "includesElement__abundance_sea": [2e-05, 0.5, 7.9], "includesElement__atomic_weight_uncertainty": [1e-05, 0.01], "includesElement__c6_gb": [513.0, 25.7, 3230.0], "includesElement__covalent_radius_bragg": [148.0, 65.0, 195.0], "includesElement__electronegativity_allen": [11.9, 18.13, 5.695], "includesElement__en_allen": [11.9, 18.13, 5.695], "includesElement__metallic_radius": [151.0, 191.0], "includesElement__metallic_radius_c12": [178.0, 53.0, 215.0], "includesElement__thermal_conductivity": [7.9, 0.026], "includesElement__vdw_radius_batsanov": [230.0, 160.0, 255.0], "includesElement__is_monoisotopic": [true], "includesElement__vdw_radius_truhlar": [207.0, 249.0], "includesElement__discovery_year": [1772, 1790], "includesElement__c6": [24.2, 3175.0], "includesElement__vdw_radius_dreiding": [366.21], "includesElement__gas_basicity": [318.7], "includesElement__proton_affinity": [342.2], "includesElement__vdw_radius_bondi": [155.0], "includesElement__vdw_radius_rt": [164.0], "formula": ["Bi1N1Sr3"], "spacegroup": ["221"], "thermalConductivity": [4.97795], "icsd": ["152053"], "band_gap": [0.2569], "density": [5.623589], "density_atomic": [28.69228], "deprecated": [false], "efermi": [3.583639], "energy_above_hull": [0.0], "energy_per_atom": [-4.392565], "formation_energy_per_atom": [-0.9413545], "homogeneous_poisson": [0.172], "is_gap_direct": [true], "is_magnetic": [false], "is_metal": [false], "is_stable": [true], "nelements": [3], "nsites": [5], "num_magnetic_sites": [0], "num_unique_magnetic_sites": [0], "theoretical": [false], "total_magnetization": [0.0], "total_magnetization_normalized_formula_units": [0.0], "total_magnetization_normalized_vol": [0.0], "uncorrected_energy_per_atom": [-23.65657], "universal_anisotropy": [0.0], "volume": [143.4614], "cbm": [3.721], "e_electronic": [20.07726], "e_ionic": [26.50948], "e_total": [46.58674], "equilibrium_reaction_energy_per_atom": [-0.1466445], "n": [4.480765], "vbm": [3.4641]}