{"includesElement": ["", "Tl", "Br"], "includesElement___series_id": [7, 6], "includesElement__abundance_crust": [0.85, 2.4], "includesElement__atomic_number": [81, 35], "includesElement__atomic_radius": [190.0, 115.0], "includesElement__atomic_radius_rahm": [242.0, 219.0], "includesElement__atomic_volume": [17.2, 23.5], "includesElement__atomic_weight": [204.38, 79.904], "includesElement__covalent_radius_cordero": [145.0, 120.0], "includesElement__covalent_radius_pyykko": [144.0, 114.0], "includesElement__covalent_radius_pyykko_double": [142.0, 109.0], "includesElement__covalent_radius_pyykko_triple": [150.0, 110.0], "includesElement__density": [11.8, 3.1028], "includesElement__dipole_polarizability": [50.0, 21.0], "includesElement__dipole_polarizability_unc": [2.0, 1.0], "includesElement__discovery_year": [1861, 1826], "includesElement__electron_affinity": [0.377, 3.363588], "includesElement__electronegativity_allred-rochow": [0.0002411265, 0.0005847953], "includesElement__electronegativity_cottrell-sutton": [0.186339, 0.2581989], "includesElement__electronegativity_ghosh": [0.173447, 0.2412578], "includesElement__electronegativity_gordy": [0.03472222, 0.06666667], "includesElement__electronegativity_mulliken": [3.242643, 7.588699], "includesElement__electronegativity_nagle": [0.3914868, 0.6933613], "includesElement__electronegativity_pauling": [1.8, 2.96], "includesElement__electronegativity_sanderson": [0.9245096, 1.049026], "includesElement__en_ghosh": [0.173447, 0.2412578], "includesElement__en_pauling": [1.8, 2.96], "includesElement__evaporation_heat": [162.4, 29.56], "includesElement__fusion_heat": [4.31, 10.57], "includesElement__glawe_number": [81, 100], "includesElement__group_id": [13, 17], "includesElement__heat_of_formation": [182.2, 111.85], "includesElement__is_radioactive": [false], "includesElement__lattice_constant": [3.46, 6.67], "includesElement__mendeleev_number": [85, 108], "includesElement__molar_heat_capacity": [26.32, 75.69], "includesElement__period": [6, 4], "includesElement__pettifor_number": [78, 98], "includesElement__specific_heat_capacity": [0.129, 0.474], "includesElement__vdw_radius": [196.0, 185.0], "includesElement__vdw_radius_alvarez": [247.0, 186.0], "includesElement__vdw_radius_mm3": [259.0, 222.0], "includesElement__vdw_radius_uff": [434.7, 418.9], "includesElement__abundance_sea": [1.9e-05, 67.3], "includesElement__c6_gb": [509.0, 187.0], "includesElement__covalent_radius_bragg": [190.0, 119.0], "includesElement__metallic_radius": [144.0], "includesElement__metallic_radius_c12": [160.0, 117.0], "includesElement__thermal_conductivity": [46.1, 0.005], "includesElement__vdw_radius_batsanov": [220.0, 190.0], "includesElement__vdw_radius_bondi": [196.0, 183.0], "includesElement__electronegativity_allen": [15.88], "includesElement__en_allen": [15.88], "includesElement__c6": [162.0], "includesElement__vdw_radius_dreiding": [395.0], "includesElement__gas_basicity": [531.2], "includesElement__proton_affinity": [554.4], "includesElement__vdw_radius_rt": [187.0], "formula": ["Br1Tl1"], "spacegroup": ["221"], "thermalConductivity": [0.545293], "icsd": ["181756"], "band_gap": [1.9877], "density": [7.376613], "density_atomic": [31.99776], "deprecated": [false], "efermi": [1.868034], "energy_above_hull": [0.004640312], "energy_per_atom": [-34.19161], "formation_energy_per_atom": [-1.026278], "homogeneous_poisson": [0.334], "is_gap_direct": [true], "is_magnetic": [false], "is_metal": [false], "is_stable": [false], "nelements": [2], "nsites": [2], "num_magnetic_sites": [0], "num_unique_magnetic_sites": [0], "theoretical": [false], "total_magnetization": [0.0], "total_magnetization_normalized_formula_units": [0.0], "total_magnetization_normalized_vol": [0.0], "uncorrected_energy_per_atom": [-34.19161], "universal_anisotropy": [0.866], "volume": [63.99552], "cbm": [3.8134], "e_electronic": [7.198298], "e_ionic": [33.63363], "e_total": [40.83193], "n": [2.682964], "vbm": [1.8257]}