{"includesElement": ["", "Zr", "B"], "includesElement___series_id": [8, 5], "includesElement__abundance_crust": [165.0, 10.0], "includesElement__atomic_number": [40, 5], "includesElement__atomic_radius": [155.0, 85.0], "includesElement__atomic_radius_rahm": [269.0, 205.0], "includesElement__atomic_volume": [14.1, 4.6], "includesElement__atomic_weight": [91.224, 10.81], "includesElement__covalent_radius_cordero": [175.0, 84.0], "includesElement__covalent_radius_pyykko": [154.0, 85.0], "includesElement__covalent_radius_pyykko_double": [127.0, 78.0], "includesElement__covalent_radius_pyykko_triple": [121.0, 73.0], "includesElement__density": [6.52, 2.34], "includesElement__dipole_polarizability": [112.0, 20.5], "includesElement__dipole_polarizability_unc": [13.0, 0.1], "includesElement__discovery_year": [1789, 1808], "includesElement__electron_affinity": [0.426, 0.279723], "includesElement__electronegativity_allred-rochow": [0.0001328217, 0.0003598616], "includesElement__electronegativity_cottrell-sutton": [0.1430194, 0.1748949], "includesElement__electronegativity_ghosh": [0.1248887, 0.184886], "includesElement__electronegativity_gordy": [0.02045455, 0.03058824], "includesElement__electronegativity_mulliken": [3.52995, 4.288871], "includesElement__electronegativity_nagle": [0.3293169, 0.5269739], "includesElement__electronegativity_pauling": [1.33, 2.04], "includesElement__electronegativity_sanderson": [0.4744467, 0.2546274], "includesElement__en_ghosh": [0.1248887, 0.184886], "includesElement__en_pauling": [1.33, 2.04], "includesElement__evaporation_heat": [567.0, 504.5], "includesElement__fusion_heat": [19.2, 23.6], "includesElement__glawe_number": [49, 86], "includesElement__group_id": [4, 13], "includesElement__heat_of_formation": [610.0, 565.0], "includesElement__is_radioactive": [false], "includesElement__lattice_constant": [3.23, 8.73], "includesElement__mendeleev_number": [44, 81], "includesElement__molar_heat_capacity": [25.36, 11.087], "includesElement__period": [5, 2], "includesElement__pettifor_number": [49, 86], "includesElement__specific_heat_capacity": [0.278, 1.026], "includesElement__vdw_radius": [223.0, 192.0], "includesElement__vdw_radius_alvarez": [252.0, 191.0], "includesElement__vdw_radius_mm3": [254.0, 215.0], "includesElement__vdw_radius_uff": [312.4, 408.3], "includesElement__abundance_sea": [3e-05, 4.44], "includesElement__atomic_weight_uncertainty": [0.002], "includesElement__c6_gb": [1360.0, 99.2], "includesElement__electronegativity_allen": [7.808, 12.13], "includesElement__en_allen": [7.808, 12.13], "includesElement__metallic_radius": [145.0, 80.0], "includesElement__metallic_radius_c12": [160.0, 98.0], "includesElement__thermal_conductivity": [22.7, 27.4], "includesElement__vdw_radius_batsanov": [230.0, 180.0], "includesElement__c6": [99.5], "includesElement__vdw_radius_dreiding": [402.0], "includesElement__vdw_radius_truhlar": [192.0], "formula": ["B2Zr1"], "spacegroup": ["191"], "thermalConductivity": [88.4071], "icsd": ["169458"], "band_gap": [0.0], "density": [6.070775], "density_atomic": [10.28892], "deprecated": [false], "efermi": [7.386496], "energy_above_hull": [0.0], "energy_per_atom": [-13.54754], "formation_energy_per_atom": [-1.066709], "homogeneous_poisson": [0.137], "is_gap_direct": [false], "is_magnetic": [false], "is_metal": [true], "is_stable": [true], "nelements": [2], "nsites": [3], "num_magnetic_sites": [0], "num_unique_magnetic_sites": [0], "theoretical": [false], "total_magnetization": [1e-07], "total_magnetization_normalized_formula_units": [1e-07], "total_magnetization_normalized_vol": [3.239731e-09], "uncorrected_energy_per_atom": [-13.54754], "universal_anisotropy": [0.142], "volume": [30.86676], "equilibrium_reaction_energy_per_atom": [-1.066709]}