{"includesElement": ["", "Sb", "Yb", "Au"], "includesElement___series_id": [5, 9, 8], "includesElement__abundance_crust": [0.2, 3.2, 0.004], "includesElement__atomic_number": [51, 70, 79], "includesElement__atomic_radius": [145.0, 175.0, 135.0], "includesElement__atomic_radius_rahm": [246.0, 277.0, 226.0], "includesElement__atomic_volume": [18.4, 24.8, 10.2], "includesElement__atomic_weight": [121.76, 173.045, 196.9666], "includesElement__covalent_radius_cordero": [139.0, 187.0, 136.0], "includesElement__covalent_radius_pyykko": [140.0, 170.0, 124.0], "includesElement__covalent_radius_pyykko_double": [133.0, 129.0, 121.0], "includesElement__covalent_radius_pyykko_triple": [127.0, 123.0], "includesElement__density": [6.68, 6.9, 19.3], "includesElement__dipole_polarizability": [43.0, 139.0, 36.0], "includesElement__dipole_polarizability_unc": [2.0, 6.0, 3.0], "includesElement__electron_affinity": [1.046, -0.02, 2.30863], "includesElement__electronegativity_allred-rochow": [0.0003214286, 9.861592e-05, 0.0002406348], "includesElement__electronegativity_cottrell-sutton": [0.212132, 0.1294786, 0.1727388], "includesElement__electronegativity_ghosh": [0.1918774, 0.22119, 0.26137], "includesElement__electronegativity_gordy": [0.045, 0.01676471, 0.02983871], "includesElement__electronegativity_mulliken": [4.827195, 3.11708, 5.767091], "includesElement__electronegativity_nagle": [0.4880907, 0.4864465, 0.67354], "includesElement__electronegativity_pauling": [2.05, 2.4], "includesElement__electronegativity_sanderson": [0.7762722, 0.5176678, 1.426701], "includesElement__en_ghosh": [0.1918774, 0.22119, 0.26137], "includesElement__en_pauling": [2.05, 2.4], "includesElement__evaporation_heat": [195.2, 159.0, 340.0], "includesElement__fusion_heat": [20.08, 3.35, 12.68], "includesElement__glawe_number": [91, 18, 66], "includesElement__group_id": [15, 11], "includesElement__heat_of_formation": [264.4, 155.6, 368.2], "includesElement__is_radioactive": [false], "includesElement__lattice_constant": [4.51, 5.49, 4.08], "includesElement__mendeleev_number": [96, 39, 73], "includesElement__molar_heat_capacity": [25.23, 26.74, 25.418], "includesElement__period": [5, 6], "includesElement__pettifor_number": [88, 17, 70], "includesElement__specific_heat_capacity": [0.207, 0.155, 0.129], "includesElement__vdw_radius": [206.0, 226.0, 214.0], "includesElement__vdw_radius_alvarez": [247.0, 280.0, 232.0], "includesElement__vdw_radius_mm3": [252.0, 279.0, 243.0], "includesElement__vdw_radius_uff": [442.0, 335.5, 329.3], "includesElement__abundance_sea": [0.00024, 8.2e-07, 4e-06], "includesElement__atomic_weight_uncertainty": [0.001, 0.01, 5e-06], "includesElement__c6_gb": [504.0, 1910.0, 427.0], "includesElement__covalent_radius_bragg": [140.0], "includesElement__electronegativity_allen": [11.74, 11.33], "includesElement__en_allen": [11.74, 11.33], "includesElement__metallic_radius": [139.0, 134.0], "includesElement__metallic_radius_c12": [166.0, 144.0], "includesElement__thermal_conductivity": [24.43, 318.0], "includesElement__vdw_radius_batsanov": [220.0, 210.0], "includesElement__c6": [492.0], "includesElement__vdw_radius_dreiding": [435.0], "includesElement__vdw_radius_truhlar": [206.0], "includesElement__discovery_year": [1878], "includesElement__is_monoisotopic": [true], "formula": ["Au2Sb2Yb2"], "spacegroup": ["186"], "thermalConductivity": [1.73282], "icsd": ["57022"], "band_gap": [0.0], "density": [11.09473], "density_atomic": [24.53411], "deprecated": [false], "efermi": [5.723722], "is_gap_direct": [false], "is_magnetic": [false], "is_metal": [true], "is_stable": [false], "nelements": [3], "nsites": [6], "num_magnetic_sites": [0], "num_unique_magnetic_sites": [0], "theoretical": [false], "total_magnetization": [1e-07], "total_magnetization_normalized_formula_units": [5e-08], "total_magnetization_normalized_vol": [6.793264e-10], "volume": [147.2046]}