{"includesElement": ["", "F", "K", "Cr"], "includesElement___series_id": [6, 3, 8], "includesElement__abundance_crust": [585.0, 20900.0, 102.0], "includesElement__atomic_number": [9, 19, 24], "includesElement__atomic_radius": [50.0, 220.0, 140.0], "includesElement__atomic_radius_rahm": [163.0, 234.0, 233.0], "includesElement__atomic_volume": [17.1, 45.3, 7.23], "includesElement__atomic_weight": [18.9984, 39.0983, 51.9961], "includesElement__covalent_radius_cordero": [57.0, 203.0, 139.0], "includesElement__covalent_radius_pyykko": [64.0, 196.0, 122.0], "includesElement__covalent_radius_pyykko_double": [59.0, 193.0, 111.0], "includesElement__covalent_radius_pyykko_triple": [53.0, 103.0], "includesElement__density": [0.001553, 0.89, 7.15], "includesElement__dipole_polarizability": [3.74, 289.7, 83.0], "includesElement__dipole_polarizability_unc": [0.08, 0.3, 12.0], "includesElement__discovery_year": [1886, 1807, 1797], "includesElement__electron_affinity": [3.40119, 0.50147, 0.666], "includesElement__electronegativity_allred-rochow": [0.001269531, 5.726781e-05, 0.0001981994], "includesElement__electronegativity_cottrell-sutton": [0.2850439, 0.1059457, 0.1555003], "includesElement__electronegativity_ghosh": [0.344443, 0.0981896, 0.1313053], "includesElement__electronegativity_gordy": [0.08125, 0.01122449, 0.02418033], "includesElement__electronegativity_mulliken": [10.412, 2.421067, 3.716255], "includesElement__electronegativity_nagle": [1.232373, 0.1511299, 0.4165729], "includesElement__electronegativity_pauling": [3.98, 0.82, 1.66], "includesElement__electronegativity_sanderson": [1.017681, 0.1218383, 0.6017723], "includesElement__en_ghosh": [0.344443, 0.0981896, 0.1313053], "includesElement__en_pauling": [3.98, 0.82, 1.66], "includesElement__evaporation_heat": [6.54, 2.33, 342.0], "includesElement__fusion_heat": [0.51, 102.5, 21.0], "includesElement__glawe_number": [102, 10, 55], "includesElement__group_id": [17, 1, 6], "includesElement__heat_of_formation": [79.335, 89.0, 397.48], "includesElement__is_radioactive": [false], "includesElement__mendeleev_number": [106, 3, 51], "includesElement__molar_heat_capacity": [31.304, 29.6, 23.35], "includesElement__period": [2, 4], "includesElement__pettifor_number": [102, 10, 57], "includesElement__specific_heat_capacity": [0.824, 0.757, 0.449], "includesElement__vdw_radius": [147.0, 275.0, 206.0], "includesElement__vdw_radius_alvarez": [146.0, 273.0, 245.0], "includesElement__vdw_radius_mm3": [171.0, 309.0, 225.0], "includesElement__vdw_radius_uff": [336.4, 381.2, 302.3], "includesElement__abundance_sea": [1.3, 399.0, 0.0003], "includesElement__atomic_weight_uncertainty": [6e-09, 0.0001, 0.0006], "includesElement__c6_gb": [10.2, 3910.0, 709.0], "includesElement__covalent_radius_bragg": [67.0, 207.0, 140.0], "includesElement__electronegativity_allen": [24.8, 4.34, 9.77], "includesElement__en_allen": [24.8, 4.34, 9.77], "includesElement__thermal_conductivity": [0.028, 79.0, 93.9], "includesElement__vdw_radius_batsanov": [150.0, 280.0, 205.0], "includesElement__c6": [9.52, 3923.0, 602.0], "includesElement__is_monoisotopic": [true], "includesElement__vdw_radius_dreiding": [347.2], "includesElement__gas_basicity": [315.1, 768.4], "includesElement__proton_affinity": [340.1, 791.3], "includesElement__vdw_radius_bondi": [147.0, 275.0], "includesElement__vdw_radius_rt": [146.0], "includesElement__lattice_constant": [5.23, 2.88], "includesElement__metallic_radius": [203.0, 119.0], "includesElement__metallic_radius_c12": [235.0, 128.0], "formula": ["Cr2F6K2"], "spacegroup": ["140"], "thermalConductivity": [1.85145], "icsd": ["169765"], "band_gap": [0.7059], "density": [3.189648], "density_atomic": [15.41917], "deprecated": [false], "efermi": [2.358022], "energy_above_hull": [0.02681325], "energy_per_atom": [-6.206554], "formation_energy_per_atom": [-2.902783], "is_gap_direct": [false], "is_magnetic": [true], "is_metal": [false], "is_stable": [false], "nelements": [3], "nsites": [5], "num_magnetic_sites": [1], "num_unique_magnetic_sites": [1], "theoretical": [false], "total_magnetization": [3.998913], "total_magnetization_normalized_formula_units": [3.998913], "total_magnetization_normalized_vol": [0.05186937], "uncorrected_energy_per_atom": [-5.529554], "volume": [77.09583], "cbm": [3.0365], "vbm": [2.3306]}