{"includesElement": ["", "P", "Ir"], "includesElement___series_id": [1, 8], "includesElement__abundance_crust": [1050.0, 0.001], "includesElement__atomic_number": [15, 77], "includesElement__atomic_radius": [100.0, 135.0], "includesElement__atomic_radius_rahm": [223.0, 240.0], "includesElement__atomic_volume": [17.0, 8.54], "includesElement__atomic_weight": [30.97376, 192.217], "includesElement__covalent_radius_cordero": [107.0, 141.0], "includesElement__covalent_radius_pyykko": [111.0, 122.0], "includesElement__covalent_radius_pyykko_double": [102.0, 115.0], "includesElement__covalent_radius_pyykko_triple": [94.0, 107.0], "includesElement__density": [1.823, 22.5622], "includesElement__dipole_polarizability": [25.0, 54.0], "includesElement__dipole_polarizability_unc": [1.0, 7.0], "includesElement__discovery_year": [1669, 1804], "includesElement__electron_affinity": [0.746607, 1.5638], "includesElement__electronegativity_allred-rochow": [0.0003895788, 0.0002620263], "includesElement__electronegativity_cottrell-sutton": [0.2079501, 0.1787938], "includesElement__electronegativity_ghosh": [0.206931, 0.25106], "includesElement__electronegativity_gordy": [0.04324324, 0.03196721], "includesElement__electronegativity_mulliken": [5.616646, 5.26541], "includesElement__electronegativity_nagle": [0.5848035, 0.5503212], "includesElement__electronegativity_pauling": [2.19, 2.2], "includesElement__electronegativity_sanderson": [0.4510269, 1.475998], "includesElement__en_ghosh": [0.206931, 0.25106], "includesElement__en_pauling": [2.19, 2.2], "includesElement__evaporation_heat": [49.8, 604.0], "includesElement__fusion_heat": [2.51, 27.61], "includesElement__glawe_number": [89, 62], "includesElement__group_id": [15, 9], "includesElement__heat_of_formation": [316.5, 669.0], "includesElement__is_radioactive": [false], "includesElement__lattice_constant": [7.17, 3.84], "includesElement__mendeleev_number": [94, 65], "includesElement__molar_heat_capacity": [23.824, 25.1], "includesElement__period": [3, 6], "includesElement__pettifor_number": [90, 65], "includesElement__specific_heat_capacity": [0.769, 0.131], "includesElement__vdw_radius": [180.0, 213.0], "includesElement__vdw_radius_alvarez": [190.0, 241.0], "includesElement__vdw_radius_mm3": [222.0, 236.0], "includesElement__vdw_radius_uff": [414.7, 284.0], "includesElement__abundance_sea": [0.06], "includesElement__atomic_weight_uncertainty": [5e-09, 0.003], "includesElement__c6_gb": [187.0, 522.0], "includesElement__electronegativity_allen": [13.33, 9.96], "includesElement__en_allen": [13.33, 9.96], "includesElement__metallic_radius": [110.0, 127.0], "includesElement__metallic_radius_c12": [128.0, 136.0], "includesElement__vdw_radius_batsanov": [195.0, 200.0], "includesElement__c6": [185.0], "includesElement__is_monoisotopic": [true], "includesElement__vdw_radius_dreiding": [415.0], "includesElement__gas_basicity": [604.8], "includesElement__proton_affinity": [626.8], "includesElement__vdw_radius_bondi": [180.0], "includesElement__thermal_conductivity": [147.0], "formula": ["Ir2P1"], "spacegroup": ["225"], "thermalConductivity": [12.8231], "icsd": ["640898"], "band_gap": [0.0], "density": [16.07491], "density_atomic": [14.30388], "deprecated": [false], "efermi": [10.10706], "energy_above_hull": [0.0], "energy_per_atom": [-38.37832], "formation_energy_per_atom": [-0.4713882], "homogeneous_poisson": [0.345], "is_gap_direct": [false], "is_magnetic": [false], "is_metal": [true], "is_stable": [true], "nelements": [2], "nsites": [3], "num_magnetic_sites": [0], "num_unique_magnetic_sites": [0], "theoretical": [false], "total_magnetization": [3e-07], "total_magnetization_normalized_formula_units": [3e-07], "total_magnetization_normalized_vol": [6.991111e-09], "uncorrected_energy_per_atom": [-38.37832], "universal_anisotropy": [3.339], "volume": [42.91163], "equilibrium_reaction_energy_per_atom": [-0.06220733]}