{"includesElement": ["", "Tl", "Dy", "C"], "includesElement___series_id": [7, 9, 1], "includesElement__abundance_crust": [0.85, 5.2, 200.0], "includesElement__atomic_number": [81, 66, 6], "includesElement__atomic_radius": [190.0, 175.0, 70.0], "includesElement__atomic_radius_rahm": [242.0, 275.0, 190.0], "includesElement__atomic_volume": [17.2, 19.0, 5.3], "includesElement__atomic_weight": [204.38, 162.5, 12.011], "includesElement__covalent_radius_cordero": [145.0, 192.0, 73.0], "includesElement__covalent_radius_pyykko": [144.0, 167.0, 75.0], "includesElement__covalent_radius_pyykko_double": [142.0, 133.0, 67.0], "includesElement__covalent_radius_pyykko_triple": [150.0, 60.0], "includesElement__density": [11.8, 8.55, 2.2], "includesElement__dipole_polarizability": [50.0, 163.0, 11.3], "includesElement__dipole_polarizability_unc": [2.0, 15.0, 0.2], "includesElement__discovery_year": [1861, 1886], "includesElement__electron_affinity": [0.377, 0.352, 1.262119], "includesElement__electronegativity_allred-rochow": [0.0002411265, 0.0001021908, 0.0005777778], "includesElement__electronegativity_cottrell-sutton": [0.186339, 0.1306364, 0.2081666], "includesElement__electronegativity_ghosh": [0.173447, 0.20333, 0.224776], "includesElement__electronegativity_gordy": [0.03472222, 0.01706587, 0.04333333], "includesElement__electronegativity_mulliken": [3.242643, 3.145525, 6.261208], "includesElement__electronegativity_nagle": [0.3914868, 0.4191131, 0.7073926], "includesElement__electronegativity_pauling": [1.8, 1.22, 2.55], "includesElement__electronegativity_sanderson": [0.9245096, 0.5297338, 0.427525], "includesElement__en_ghosh": [0.173447, 0.20333, 0.224776], "includesElement__en_pauling": [1.8, 1.22, 2.55], "includesElement__evaporation_heat": [162.4, 291.0], "includesElement__fusion_heat": [4.31], "includesElement__glawe_number": [81, 24, 87], "includesElement__group_id": [13, 14], "includesElement__heat_of_formation": [182.2, 290.4, 716.87], "includesElement__is_radioactive": [false], "includesElement__lattice_constant": [3.46, 3.59, 3.57], "includesElement__mendeleev_number": [85, 31, 87], "includesElement__molar_heat_capacity": [26.32, 28.16, 8.517], "includesElement__period": [6, 2], "includesElement__pettifor_number": [78, 25, 95], "includesElement__specific_heat_capacity": [0.129, 0.173, 0.709], "includesElement__vdw_radius": [196.0, 231.0, 170.0], "includesElement__vdw_radius_alvarez": [247.0, 287.0, 177.0], "includesElement__vdw_radius_mm3": [259.0, 290.0, 204.0], "includesElement__vdw_radius_uff": [434.7, 342.8, 385.1], "includesElement__abundance_sea": [1.9e-05, 9.1e-07, 28.0], "includesElement__c6_gb": [509.0, 2430.0, 47.9], "includesElement__covalent_radius_bragg": [190.0, 77.0], "includesElement__metallic_radius": [144.0], "includesElement__metallic_radius_c12": [160.0, 86.0], "includesElement__thermal_conductivity": [46.1, 10.7, 1.59], "includesElement__vdw_radius_batsanov": [220.0, 170.0], "includesElement__vdw_radius_bondi": [196.0, 170.0], "includesElement__atomic_weight_uncertainty": [0.001], "includesElement__electronegativity_allen": [15.05], "includesElement__en_allen": [15.05], "includesElement__c6": [46.6], "includesElement__vdw_radius_dreiding": [389.83], "includesElement__vdw_radius_rt": [177.0], "formula": ["C1Dy3Tl1"], "spacegroup": ["221"], "thermalConductivity": [1.08478], "icsd": ["76815"], "band_gap": [0.0], "density": [6.608646], "density_atomic": [35.37316], "deprecated": [false], "efermi": [2.172713], "energy_above_hull": [1.916393], "energy_per_atom": [-3.465008], "formation_energy_per_atom": [1.626045], "homogeneous_poisson": [0.366], "is_gap_direct": [false], "is_magnetic": [false], "is_metal": [true], "is_stable": [false], "nelements": [3], "nsites": [5], "num_magnetic_sites": [0], "num_unique_magnetic_sites": [0], "theoretical": [false], "total_magnetization": [0.0046947], "total_magnetization_normalized_formula_units": [0.0046947], "total_magnetization_normalized_vol": [2.654385e-05], "uncorrected_energy_per_atom": [-3.465008], "universal_anisotropy": [62.119], "volume": [176.8658]}