{"includesElement": ["", "Pt", "Ce", "In"], "includesElement___series_id": [8, 9, 7], "includesElement__abundance_crust": [0.005, 66.5, 0.25], "includesElement__atomic_number": [78, 58, 49], "includesElement__atomic_radius": [135.0, 185.0, 155.0], "includesElement__atomic_radius_rahm": [230.0, 282.0, 246.0], "includesElement__atomic_volume": [9.1, 21.0, 15.7], "includesElement__atomic_weight": [195.084, 140.116, 114.818], "includesElement__covalent_radius_cordero": [136.0, 204.0, 142.0], "includesElement__covalent_radius_pyykko": [123.0, 163.0, 142.0], "includesElement__covalent_radius_pyykko_double": [112.0, 137.0, 136.0], "includesElement__covalent_radius_pyykko_triple": [110.0, 131.0, 146.0], "includesElement__density": [21.5, 6.77, 7.31], "includesElement__dipole_polarizability": [48.0, 205.0, 65.0], "includesElement__dipole_polarizability_unc": [4.0, 20.0], "includesElement__discovery_year": [1735, 1803, 1863], "includesElement__electron_affinity": [2.128, 0.65, 0.3], "includesElement__electronegativity_allred-rochow": [0.0002346487, 0.0001129135, 0.0002479667], "includesElement__electronegativity_cottrell-sutton": [0.1698876, 0.1356647, 0.1876467], "includesElement__electronegativity_ghosh": [0.25691, 0.16761, 0.16423], "includesElement__electronegativity_gordy": [0.02886179, 0.01840491, 0.03521127], "includesElement__electronegativity_mulliken": [5.543415, 3.0943, 3.043178], "includesElement__electronegativity_nagle": [0.5928156, 0.2692167, 0.3587038], "includesElement__electronegativity_pauling": [2.2, 1.12, 1.78], "includesElement__electronegativity_sanderson": [1.45101, 0.5356179, 0.7172747], "includesElement__en_ghosh": [0.25691, 0.16761, 0.16423], "includesElement__en_pauling": [2.2, 1.12, 1.78], "includesElement__evaporation_heat": [470.0, 398.0, 225.1], "includesElement__fusion_heat": [21.76, 5.2, 3.24], "includesElement__glawe_number": [64, 31, 80], "includesElement__group_id": [10, 13], "includesElement__heat_of_formation": [565.7, 420.1, 243.0], "includesElement__is_radioactive": [false], "includesElement__lattice_constant": [3.92, 5.16, 4.59], "includesElement__mendeleev_number": [69, 15, 84], "includesElement__molar_heat_capacity": [25.86, 26.94, 26.74], "includesElement__period": [6, 5], "includesElement__pettifor_number": [68, 32, 79], "includesElement__specific_heat_capacity": [0.133, 0.192, 0.233], "includesElement__vdw_radius": [213.0, 242.0, 193.0], "includesElement__vdw_radius_alvarez": [229.0, 288.0, 243.0], "includesElement__vdw_radius_mm3": [239.0, 274.0, 264.0], "includesElement__vdw_radius_uff": [275.4, 355.6, 446.3], "includesElement__atomic_weight_uncertainty": [0.009, 0.001], "includesElement__c6_gb": [470.0, 3480.0, 643.0], "includesElement__electronegativity_allen": [10.16, 9.793], "includesElement__en_allen": [10.16, 9.793], "includesElement__metallic_radius": [130.0, 142.0], "includesElement__metallic_radius_c12": [139.0, 158.0], "includesElement__thermal_conductivity": [71.6, 11.3, 81.8], "includesElement__vdw_radius_batsanov": [205.0, 220.0], "includesElement__abundance_sea": [1.2e-06, 0.02], "includesElement__c6": [779.0], "includesElement__vdw_radius_dreiding": [459.0], "includesElement__vdw_radius_bondi": [193.0], "formula": ["Ce4In2Pt4"], "spacegroup": ["127"], "thermalConductivity": [1.90286], "icsd": ["410293"], "band_gap": [0.0], "density": [11.15882], "density_atomic": [23.3696], "deprecated": [false], "efermi": [7.909748], "energy_above_hull": [0.0], "energy_per_atom": [-6.370673], "formation_energy_per_atom": [-1.015605], "is_gap_direct": [false], "is_magnetic": [true], "is_metal": [true], "is_stable": [true], "nelements": [3], "nsites": [10], "num_magnetic_sites": [4], "num_unique_magnetic_sites": [2], "theoretical": [false], "total_magnetization": [3.15055], "total_magnetization_normalized_formula_units": [1.575275], "total_magnetization_normalized_vol": [0.0134814], "uncorrected_energy_per_atom": [-38.57393], "volume": [233.696], "equilibrium_reaction_energy_per_atom": [-0.03260061]}