{"includesElement": ["", "Ge", "Sr", "Rh"], "includesElement___series_id": [5, 4, 8], "includesElement__abundance_crust": [1.5, 370.0, 0.001], "includesElement__atomic_number": [32, 38, 45], "includesElement__atomic_radius": [125.0, 200.0, 135.0], "includesElement__atomic_radius_rahm": [234.0, 279.0, 233.0], "includesElement__atomic_volume": [13.6, 33.7, 8.3], "includesElement__atomic_weight": [72.63, 87.62, 102.9055], "includesElement__covalent_radius_cordero": [120.0, 195.0, 142.0], "includesElement__covalent_radius_pyykko": [121.0, 185.0, 125.0], "includesElement__covalent_radius_pyykko_double": [111.0, 157.0, 110.0], "includesElement__covalent_radius_pyykko_triple": [114.0, 139.0, 106.0], "includesElement__density": [5.3234, 2.64, 12.4], "includesElement__dipole_polarizability": [40.0, 197.2, 66.0], "includesElement__dipole_polarizability_unc": [1.0, 0.2, 10.0], "includesElement__discovery_year": [1886, 1790, 1803], "includesElement__electron_affinity": [1.232712, 0.048, 1.137], "includesElement__electronegativity_allred-rochow": [0.0003859026, 8.327246e-05, 0.0002176], "includesElement__electronegativity_cottrell-sutton": [0.2160884, 0.1241185, 0.1649242], "includesElement__electronegativity_ghosh": [0.1895892, 0.1185082, 0.1408379], "includesElement__electronegativity_gordy": [0.04669421, 0.01540541, 0.0272], "includesElement__electronegativity_mulliken": [4.566073, 2.871434, 4.29795], "includesElement__electronegativity_nagle": [0.4641589, 0.2164584, 0.5147142], "includesElement__electronegativity_pauling": [2.01, 0.95, 2.28], "includesElement__electronegativity_sanderson": [0.8001471, 0.2631786, 0.9761915], "includesElement__en_ghosh": [0.1895892, 0.1185082, 0.1408379], "includesElement__en_pauling": [2.01, 0.95, 2.28], "includesElement__evaporation_heat": [328.0, 144.0, 494.0], "includesElement__fusion_heat": [36.8, 9.2, 21.8], "includesElement__glawe_number": [84, 15, 63], "includesElement__group_id": [14, 2, 9], "includesElement__heat_of_formation": [372.0, 164.0, 556.0], "includesElement__is_radioactive": [false], "includesElement__lattice_constant": [5.66, 6.08, 3.8], "includesElement__mendeleev_number": [89, 8, 64], "includesElement__molar_heat_capacity": [23.222, 26.79, 24.98], "includesElement__period": [4, 5], "includesElement__pettifor_number": [84, 15, 66], "includesElement__specific_heat_capacity": [0.32, 0.306, 0.243], "includesElement__vdw_radius": [211.0, 249.0, 210.0], "includesElement__vdw_radius_alvarez": [229.0, 284.0, 244.0], "includesElement__vdw_radius_mm3": [244.0, 300.0, 234.0], "includesElement__vdw_radius_uff": [428.0, 364.1, 292.9], "includesElement__abundance_sea": [5e-05, 7.9], "includesElement__atomic_weight_uncertainty": [0.008, 0.01, 2e-05], "includesElement__c6_gb": [365.0, 3230.0, 708.0], "includesElement__electronegativity_allen": [11.8, 5.695, 9.259], "includesElement__en_allen": [11.8, 5.695, 9.259], "includesElement__metallic_radius": [124.0, 191.0, 125.0], "includesElement__metallic_radius_c12": [144.0, 215.0, 134.0], "includesElement__thermal_conductivity": [60.2, 150.0], "includesElement__vdw_radius_batsanov": [210.0, 255.0, 200.0], "includesElement__c6": [354.0, 3175.0], "includesElement__vdw_radius_dreiding": [427.0], "includesElement__vdw_radius_truhlar": [211.0, 249.0], "includesElement__covalent_radius_bragg": [195.0], "includesElement__is_monoisotopic": [true], "includesElement__gas_basicity": [745.4], "includesElement__proton_affinity": [768.0], "formula": ["Ge2Rh2Sr1"], "spacegroup": ["139"], "thermalConductivity": [7.8396], "icsd": ["77145"], "band_gap": [0.0], "density": [7.625202], "density_atomic": [19.10761], "deprecated": [false], "efermi": [5.393978], "energy_above_hull": [0.0], "energy_per_atom": [-19.07871], "formation_energy_per_atom": [-0.8462924], "homogeneous_poisson": [0.229], "is_gap_direct": [false], "is_magnetic": [false], "is_metal": [true], "is_stable": [true], "nelements": [3], "nsites": [5], "num_magnetic_sites": [0], "num_unique_magnetic_sites": [0], "theoretical": [false], "total_magnetization": [3e-07], "total_magnetization_normalized_formula_units": [3e-07], "total_magnetization_normalized_vol": [3.140111e-09], "uncorrected_energy_per_atom": [-19.07871], "universal_anisotropy": [0.622], "volume": [95.53803], "equilibrium_reaction_energy_per_atom": [-0.282567]}