{"includesElement": ["", "Ni", "Pd", "Te"], "includesElement___series_id": [8, 5], "includesElement__abundance_crust": [84.0, 0.015, 0.001], "includesElement__atomic_number": [28, 46, 52], "includesElement__atomic_radius": [135.0, 140.0], "includesElement__atomic_radius_rahm": [229.0, 215.0, 242.0], "includesElement__atomic_volume": [6.6, 8.9, 20.5], "includesElement__atomic_weight": [58.6934, 106.42, 127.6], "includesElement__covalent_radius_cordero": [124.0, 139.0, 138.0], "includesElement__covalent_radius_pyykko": [110.0, 120.0, 136.0], "includesElement__covalent_radius_pyykko_double": [101.0, 117.0, 128.0], "includesElement__covalent_radius_pyykko_triple": [101.0, 112.0, 121.0], "includesElement__density": [8.9, 12.0, 6.232], "includesElement__dipole_polarizability": [49.0, 26.14, 38.0], "includesElement__dipole_polarizability_unc": [3.0, 0.1, 4.0], "includesElement__discovery_year": [1751, 1803, 1782], "includesElement__electron_affinity": [1.156, 0.562, 1.970876], "includesElement__electronegativity_allred-rochow": [0.0003347107, 0.0004756944, 0.0003757569], "includesElement__electronegativity_cottrell-sutton": [0.1918806, 0.2389212, 0.2260596], "includesElement__electronegativity_ghosh": [0.1472068, 0.1440276, 0.2056992], "includesElement__electronegativity_gordy": [0.03681818, 0.05708333, 0.05110294], "includesElement__electronegativity_mulliken": [4.397939, 4.44943, 5.490268], "includesElement__electronegativity_nagle": [0.588755, 0.7259357, 0.5404919], "includesElement__electronegativity_pauling": [1.91, 2.2, 2.1], "includesElement__electronegativity_sanderson": [0.937704, 1.124263, 0.8622506], "includesElement__en_ghosh": [0.1472068, 0.1440276, 0.2056992], "includesElement__en_pauling": [1.91, 2.2, 2.1], "includesElement__evaporation_heat": [378.6, 372.4, 49.8], "includesElement__fusion_heat": [17.61, 17.24, 17.91], "includesElement__glawe_number": [69, 65, 94], "includesElement__group_id": [10, 16], "includesElement__heat_of_formation": [430.1, 376.6, 196.6], "includesElement__is_radioactive": [false], "includesElement__lattice_constant": [3.52, 3.89, 4.45], "includesElement__mendeleev_number": [67, 68, 102], "includesElement__molar_heat_capacity": [26.07, 25.98, 25.73], "includesElement__period": [4, 5], "includesElement__pettifor_number": [67, 69, 92], "includesElement__specific_heat_capacity": [0.444, 0.246, 0.202], "includesElement__vdw_radius": [197.0, 210.0, 206.0], "includesElement__vdw_radius_alvarez": [240.0, 215.0, 199.0], "includesElement__vdw_radius_mm3": [222.0, 237.0, 244.0], "includesElement__vdw_radius_uff": [283.4, 289.9, 447.0], "includesElement__abundance_sea": [0.00056], "includesElement__atomic_weight_uncertainty": [0.0004, 0.01, 0.03], "includesElement__c6_gb": [393.0, 628.0, 471.0], "includesElement__covalent_radius_bragg": [135.0, 133.0], "includesElement__electronegativity_allen": [11.13, 9.402, 12.76], "includesElement__en_allen": [11.13, 9.402, 12.76], "includesElement__metallic_radius": [115.0, 128.0, 137.0], "includesElement__metallic_radius_c12": [124.0, 137.0, 160.0], "includesElement__thermal_conductivity": [90.9, 71.8, 14.3], "includesElement__vdw_radius_batsanov": [200.0, 205.0, 210.0], "includesElement__c6": [373.0, 445.0], "includesElement__gas_basicity": [714.1, 673.4], "includesElement__proton_affinity": [737.0, 696.0], "includesElement__vdw_radius_dreiding": [423.0], "includesElement__vdw_radius_bondi": [206.0], "formula": ["Ni4Pd4Te4"], "spacegroup": ["62"], "thermalConductivity": [1.30691], "icsd": ["419759"], "band_gap": [0.0], "density": [9.7409], "density_atomic": [16.63303], "deprecated": [false], "efermi": [8.085818], "energy_above_hull": [0.01188806], "energy_per_atom": [-20.35667], "formation_energy_per_atom": [-0.236875], "homogeneous_poisson": [0.358], "is_gap_direct": [false], "is_magnetic": [false], "is_metal": [true], "is_stable": [false], "nelements": [3], "nsites": [12], "num_magnetic_sites": [0], "num_unique_magnetic_sites": [0], "theoretical": [false], "total_magnetization": [6e-07], "total_magnetization_normalized_formula_units": [1.5e-07], "total_magnetization_normalized_vol": [3.006067e-09], "uncorrected_energy_per_atom": [-20.35667], "universal_anisotropy": [0.262], "volume": [199.5963]}