{"includesElement": ["", "Hf", "H", "B"], "includesElement___series_id": [8, 1, 5], "includesElement__abundance_crust": [3.0, 1400.0, 10.0], "includesElement__atomic_number": [72, 1, 5], "includesElement__atomic_radius": [155.0, 25.0, 85.0], "includesElement__atomic_radius_rahm": [264.0, 154.0, 205.0], "includesElement__atomic_volume": [13.6, 14.1, 4.6], "includesElement__atomic_weight": [178.49, 1.008, 10.81], "includesElement__covalent_radius_cordero": [175.0, 31.0, 84.0], "includesElement__covalent_radius_pyykko": [152.0, 32.0, 85.0], "includesElement__covalent_radius_pyykko_double": [128.0, 78.0], "includesElement__covalent_radius_pyykko_triple": [122.0, 73.0], "includesElement__density": [13.3, 8.2e-05, 2.34], "includesElement__dipole_polarizability": [103.0, 4.50711, 20.5], "includesElement__dipole_polarizability_unc": [6.0, 3e-05, 0.1], "includesElement__discovery_year": [1923, 1766, 1808], "includesElement__electron_affinity": [0.014, 0.754195, 0.279723], "includesElement__electronegativity_allred-rochow": [0.00013634, 0.0009765625, 0.0003598616], "includesElement__electronegativity_cottrell-sutton": [0.1439572, 0.1767767, 0.1748949], "includesElement__electronegativity_ghosh": [0.229987, 0.2638, 0.184886], "includesElement__electronegativity_gordy": [0.02072368, 0.03125, 0.03058824], "includesElement__electronegativity_mulliken": [3.419535, 7.176315, 4.288871], "includesElement__electronegativity_nagle": [0.3386421, 0.6053882, 0.5269739], "includesElement__electronegativity_pauling": [1.3, 2.2, 2.04], "includesElement__electronegativity_sanderson": [0.7352125, 2.187771, 0.2546274], "includesElement__en_ghosh": [0.229987, 0.2638, 0.184886], "includesElement__en_pauling": [1.3, 2.2, 2.04], "includesElement__evaporation_heat": [575.0, 0.904, 504.5], "includesElement__fusion_heat": [25.1, 0.117, 23.6], "includesElement__glawe_number": [50, 103, 86], "includesElement__group_id": [4, 1, 13], "includesElement__heat_of_formation": [618.4, 217.998, 565.0], "includesElement__is_radioactive": [false], "includesElement__lattice_constant": [3.2, 3.75, 8.73], "includesElement__mendeleev_number": [45, 105, 81], "includesElement__molar_heat_capacity": [25.73, 28.836, 11.087], "includesElement__period": [6, 1, 2], "includesElement__pettifor_number": [50, 103, 86], "includesElement__specific_heat_capacity": [0.144, 14.304, 1.026], "includesElement__vdw_radius": [223.0, 110.0, 192.0], "includesElement__vdw_radius_alvarez": [263.0, 120.0, 191.0], "includesElement__vdw_radius_mm3": [253.0, 162.0, 215.0], "includesElement__vdw_radius_uff": [314.1, 288.6, 408.3], "includesElement__abundance_sea": [7e-06, 108000.0, 4.44], "includesElement__atomic_weight_uncertainty": [0.02], "includesElement__c6_gb": [1040.0, 6.51, 99.2], "includesElement__electronegativity_allen": [6.83, 13.61, 12.13], "includesElement__en_allen": [6.83, 13.61, 12.13], "includesElement__metallic_radius": [144.0, 80.0], "includesElement__metallic_radius_c12": [159.0, 78.0, 98.0], "includesElement__thermal_conductivity": [23.0, 0.1815, 27.4], "includesElement__vdw_radius_batsanov": [225.0, 180.0], "includesElement__c6": [6.499027, 99.5], "includesElement__vdw_radius_dreiding": [319.5, 402.0], "includesElement__vdw_radius_bondi": [120.0], "includesElement__vdw_radius_rt": [110.0], "includesElement__vdw_radius_truhlar": [192.0], "formula": ["B4H16Hf1"], "spacegroup": ["215"], "thermalConductivity": [13.1745], "icsd": ["35379"], "band_gap": [5.7195], "density": [1.844487], "density_atomic": [10.19712], "deprecated": [false], "efermi": [-4.17571], "energy_above_hull": [0.0], "energy_per_atom": [-6.388246], "formation_energy_per_atom": [-0.2064069], "is_gap_direct": [true], "is_magnetic": [false], "is_metal": [false], "is_stable": [true], "nelements": [3], "nsites": [21], "num_magnetic_sites": [0], "num_unique_magnetic_sites": [0], "theoretical": [false], "total_magnetization": [0.0], "total_magnetization_normalized_formula_units": [0.0], "total_magnetization_normalized_vol": [0.0], "uncorrected_energy_per_atom": [-6.388246], "volume": [214.1395], "cbm": [1.4504], "equilibrium_reaction_energy_per_atom": [-0.02965391], "vbm": [-4.2691]}