{"includesElement": ["", "Sc", "Pt", "In"], "includesElement___series_id": [8, 7], "includesElement__abundance_crust": [22.0, 0.005, 0.25], "includesElement__atomic_number": [21, 78, 49], "includesElement__atomic_radius": [160.0, 135.0, 155.0], "includesElement__atomic_radius_rahm": [263.0, 230.0, 246.0], "includesElement__atomic_volume": [15.0, 9.1, 15.7], "includesElement__atomic_weight": [44.95591, 195.084, 114.818], "includesElement__covalent_radius_cordero": [170.0, 136.0, 142.0], "includesElement__covalent_radius_pyykko": [148.0, 123.0, 142.0], "includesElement__covalent_radius_pyykko_double": [116.0, 112.0, 136.0], "includesElement__covalent_radius_pyykko_triple": [114.0, 110.0, 146.0], "includesElement__density": [2.99, 21.5, 7.31], "includesElement__dipole_polarizability": [97.0, 48.0, 65.0], "includesElement__dipole_polarizability_unc": [10.0, 4.0], "includesElement__discovery_year": [1879, 1735, 1863], "includesElement__electron_affinity": [0.188, 2.128, 0.3], "includesElement__electronegativity_allred-rochow": [0.0001369613, 0.0002346487, 0.0002479667], "includesElement__electronegativity_cottrell-sutton": [0.1423737, 0.1698876, 0.1876467], "includesElement__electronegativity_ghosh": [0.1193833, 0.25691, 0.16423], "includesElement__electronegativity_gordy": [0.02027027, 0.02886179, 0.03521127], "includesElement__electronegativity_mulliken": [3.374745, 5.543415, 3.043178], "includesElement__electronegativity_nagle": [0.3138941, 0.5928156, 0.3587038], "includesElement__electronegativity_pauling": [1.36, 2.2, 1.78], "includesElement__electronegativity_sanderson": [0.3038674, 1.45101, 0.7172747], "includesElement__en_ghosh": [0.1193833, 0.25691, 0.16423], "includesElement__en_pauling": [1.36, 2.2, 1.78], "includesElement__evaporation_heat": [332.7, 470.0, 225.1], "includesElement__fusion_heat": [15.8, 21.76, 3.24], "includesElement__glawe_number": [48, 64, 80], "includesElement__group_id": [3, 10, 13], "includesElement__heat_of_formation": [377.8, 565.7, 243.0], "includesElement__is_radioactive": [false], "includesElement__lattice_constant": [3.31, 3.92, 4.59], "includesElement__mendeleev_number": [11, 69, 84], "includesElement__molar_heat_capacity": [25.52, 25.86, 26.74], "includesElement__period": [4, 6, 5], "includesElement__pettifor_number": [20, 68, 79], "includesElement__specific_heat_capacity": [0.568, 0.133, 0.233], "includesElement__vdw_radius": [215.0, 213.0, 193.0], "includesElement__vdw_radius_alvarez": [258.0, 229.0, 243.0], "includesElement__vdw_radius_mm3": [261.0, 239.0, 264.0], "includesElement__vdw_radius_uff": [329.5, 275.4, 446.3], "includesElement__abundance_sea": [6e-07, 0.02], "includesElement__atomic_weight_uncertainty": [5e-06, 0.009, 0.001], "includesElement__c6_gb": [1570.0, 470.0, 643.0], "includesElement__electronegativity_allen": [7.042, 10.16, 9.793], "includesElement__en_allen": [7.042, 10.16, 9.793], "includesElement__metallic_radius": [144.0, 130.0, 142.0], "includesElement__metallic_radius_c12": [162.0, 139.0, 158.0], "includesElement__thermal_conductivity": [15.8, 71.6, 81.8], "includesElement__vdw_radius_batsanov": [230.0, 205.0, 220.0], "includesElement__c6": [1383.0, 779.0], "includesElement__is_monoisotopic": [true], "includesElement__gas_basicity": [892.0], "includesElement__proton_affinity": [914.0], "includesElement__vdw_radius_dreiding": [459.0], "includesElement__vdw_radius_bondi": [193.0], "formula": ["In1Pt2Sc1"], "spacegroup": ["225"], "thermalConductivity": [2.77742], "icsd": ["59502"], "band_gap": [0.0], "density": [12.9492], "density_atomic": [17.63044], "deprecated": [false], "efermi": [7.622344], "energy_above_hull": [0.0], "energy_per_atom": [-6.217935], "formation_energy_per_atom": [-0.9094573], "homogeneous_poisson": [0.402], "is_gap_direct": [false], "is_magnetic": [false], "is_metal": [true], "is_stable": [true], "nelements": [3], "nsites": [4], "num_magnetic_sites": [0], "num_unique_magnetic_sites": [0], "theoretical": [false], "total_magnetization": [4e-06], "total_magnetization_normalized_formula_units": [4e-06], "total_magnetization_normalized_vol": [5.67201e-08], "uncorrected_energy_per_atom": [-35.25215], "universal_anisotropy": [8.478], "volume": [70.52174], "equilibrium_reaction_energy_per_atom": [-0.01601596]}