{"includesElement": ["", "Mg", "S", "Lu"], "includesElement___series_id": [4, 1, 8], "includesElement__abundance_crust": [23300.0, 350.0, 0.8], "includesElement__atomic_number": [12, 16, 71], "includesElement__atomic_radius": [150.0, 100.0, 175.0], "includesElement__atomic_radius_rahm": [240.0, 214.0, 270.0], "includesElement__atomic_volume": [14.0, 15.5, 17.8], "includesElement__atomic_weight": [24.305, 32.06, 174.9668], "includesElement__covalent_radius_cordero": [141.0, 105.0, 187.0], "includesElement__covalent_radius_pyykko": [139.0, 103.0, 162.0], "includesElement__covalent_radius_pyykko_double": [132.0, 94.0, 131.0], "includesElement__covalent_radius_pyykko_triple": [127.0, 95.0, 131.0], "includesElement__density": [1.74, 2.07, 9.84], "includesElement__dipole_polarizability": [71.2, 19.4, 137.0], "includesElement__dipole_polarizability_unc": [0.4, 0.1, 7.0], "includesElement__discovery_year": [1808, 1907], "includesElement__electronegativity_allred-rochow": [0.0001475079, 0.0005137148, 0.0001143118], "includesElement__electronegativity_cottrell-sutton": [0.1431908, 0.2300274, 0.1360828], "includesElement__electronegativity_ghosh": [0.121644, 0.23596, 0.22565], "includesElement__electronegativity_gordy": [0.0205036, 0.05291262, 0.01851852], "includesElement__electronegativity_mulliken": [3.823117, 6.218557, 2.882935], "includesElement__electronegativity_nagle": [0.3039835, 0.6762644, 0.4987805], "includesElement__electronegativity_pauling": [1.31, 2.58, 1.0], "includesElement__electronegativity_sanderson": [0.1524211, 0.6397251, 0.6027398], "includesElement__en_ghosh": [0.121644, 0.23596, 0.22565], "includesElement__en_pauling": [1.31, 2.58, 1.0], "includesElement__evaporation_heat": [131.8, 10.5, 414.0], "includesElement__fusion_heat": [9.2, 1.23], "includesElement__glawe_number": [73, 96, 19], "includesElement__group_id": [2, 16], "includesElement__heat_of_formation": [147.1, 277.17, 427.6], "includesElement__is_radioactive": [false], "includesElement__lattice_constant": [3.21, 10.47, 3.51], "includesElement__mendeleev_number": [76, 100, 41], "includesElement__molar_heat_capacity": [24.869, 22.7, 26.86], "includesElement__period": [3, 6], "includesElement__pettifor_number": [73, 94, 21], "includesElement__specific_heat_capacity": [1.023, 0.708, 0.154], "includesElement__vdw_radius": [173.0, 180.0, 224.0], "includesElement__vdw_radius_alvarez": [251.0, 189.0, 274.0], "includesElement__vdw_radius_mm3": [243.0, 215.0, 265.0], "includesElement__vdw_radius_uff": [302.1, 403.5, 364.0], "includesElement__abundance_sea": [1290.0, 905.0, 1.5e-07], "includesElement__c6_gb": [629.0, 140.0, 2020.0], "includesElement__covalent_radius_bragg": [142.0, 102.0], "includesElement__electronegativity_allen": [7.646, 15.31, 6.455], "includesElement__en_allen": [7.646, 15.31, 6.455], "includesElement__metallic_radius": [136.0, 104.0], "includesElement__metallic_radius_c12": [160.0, 127.0], "includesElement__thermal_conductivity": [156.0, 0.27], "includesElement__vdw_radius_batsanov": [220.0, 180.0], "includesElement__c6": [626.0, 134.0], "includesElement__gas_basicity": [797.3, 640.2, 970.6], "includesElement__proton_affinity": [819.6, 664.3, 992.0], "includesElement__vdw_radius_bondi": [173.0, 180.0], "includesElement__electron_affinity": [2.077104, 0.34], "includesElement__vdw_radius_dreiding": [403.0], "includesElement__vdw_radius_rt": [181.0], "includesElement__atomic_weight_uncertainty": [0.0001], "formula": ["Lu4Mg2S8"], "spacegroup": ["227"], "thermalConductivity": [2.60112], "icsd": ["37420"], "band_gap": [1.9819], "density": [5.11129], "density_atomic": [23.32146], "deprecated": [false], "efermi": [2.141849], "energy_above_hull": [0.0], "energy_per_atom": [-6.066662], "formation_energy_per_atom": [-2.17705], "is_gap_direct": [true], "is_magnetic": [false], "is_metal": [false], "is_stable": [true], "nelements": [3], "nsites": [14], "num_magnetic_sites": [0], "num_unique_magnetic_sites": [0], "theoretical": [false], "total_magnetization": [0.0], "total_magnetization_normalized_formula_units": [0.0], "total_magnetization_normalized_vol": [0.0], "uncorrected_energy_per_atom": [-18.24717], "volume": [326.5004], "cbm": [4.0884], "equilibrium_reaction_energy_per_atom": [-0.02548526], "vbm": [2.1065]}