{"includesElement": ["", "As", "Cu", "Y"], "includesElement___series_id": [5, 8], "includesElement__abundance_crust": [1.8, 60.0, 33.0], "includesElement__atomic_number": [33, 29, 39], "includesElement__atomic_radius": [115.0, 135.0, 180.0], "includesElement__atomic_radius_rahm": [231.0, 217.0, 274.0], "includesElement__atomic_volume": [13.1, 7.1, 19.8], "includesElement__atomic_weight": [74.92159, 63.546, 88.90584], "includesElement__covalent_radius_cordero": [119.0, 132.0, 190.0], "includesElement__covalent_radius_pyykko": [121.0, 112.0, 163.0], "includesElement__covalent_radius_pyykko_double": [114.0, 115.0, 130.0], "includesElement__covalent_radius_pyykko_triple": [106.0, 120.0, 124.0], "includesElement__density": [5.75, 8.96, 4.47], "includesElement__dipole_polarizability": [30.0, 46.5, 162.0], "includesElement__dipole_polarizability_unc": [1.0, 0.5, 12.0], "includesElement__electron_affinity": [0.804, 1.235, 0.307], "includesElement__electronegativity_allred-rochow": [0.0004302985, 0.0002949617, 0.0001129135], "includesElement__electronegativity_cottrell-sutton": [0.22818, 0.1817573, 0.1356647], "includesElement__electronegativity_ghosh": [0.2068208, 0.1511716, 0.1216986], "includesElement__electronegativity_gordy": [0.05206612, 0.03303571, 0.01840491], "includesElement__electronegativity_mulliken": [5.2965, 4.48069, 3.26213], "includesElement__electronegativity_nagle": [0.5503212, 0.6184623, 0.2645668], "includesElement__electronegativity_pauling": [2.18, 1.9, 1.22], "includesElement__electronegativity_sanderson": [0.8253373, 0.9175542, 0.3923941], "includesElement__en_ghosh": [0.2068208, 0.1511716, 0.1216986], "includesElement__en_pauling": [2.18, 1.9, 1.22], "includesElement__evaporation_heat": [32.4, 304.6, 367.0], "includesElement__glawe_number": [90, 68, 21], "includesElement__group_id": [15, 11, 3], "includesElement__heat_of_formation": [302.5, 337.4, 424.7], "includesElement__is_radioactive": [false], "includesElement__lattice_constant": [4.13, 3.61, 3.65], "includesElement__mendeleev_number": [95, 71, 12], "includesElement__molar_heat_capacity": [24.64, 24.44, 26.53], "includesElement__period": [4, 5], "includesElement__pettifor_number": [89, 72, 19], "includesElement__specific_heat_capacity": [0.329, 0.385, 0.298], "includesElement__vdw_radius": [185.0, 196.0, 232.0], "includesElement__vdw_radius_alvarez": [188.0, 238.0, 275.0], "includesElement__vdw_radius_mm3": [236.0, 226.0, 271.0], "includesElement__vdw_radius_uff": [423.0, 349.5, 334.5], "includesElement__abundance_sea": [0.0037, 0.00025, 1.3e-05], "includesElement__atomic_weight_uncertainty": [6e-06, 0.003, 2e-05], "includesElement__c6_gb": [260.0, 264.0, 2600.0], "includesElement__covalent_radius_bragg": [126.0, 137.0], "includesElement__electronegativity_allen": [13.08, 10.96, 6.631], "includesElement__en_allen": [13.08, 10.96, 6.631], "includesElement__metallic_radius": [121.0, 118.0, 162.0], "includesElement__metallic_radius_c12": [148.0, 128.0, 180.0], "includesElement__vdw_radius_batsanov": [205.0, 200.0, 240.0], "includesElement__c6": [246.0, 253.0], "includesElement__is_monoisotopic": [true], "includesElement__vdw_radius_dreiding": [415.0], "includesElement__vdw_radius_bondi": [185.0], "includesElement__fusion_heat": [13.01, 11.5], "includesElement__thermal_conductivity": [401.0], "includesElement__gas_basicity": [632.4, 945.9], "includesElement__proton_affinity": [655.3, 967.0], "includesElement__discovery_year": [1789], "formula": ["As4Cu2Y2"], "spacegroup": ["129"], "thermalConductivity": [5.05027], "icsd": ["412550"], "band_gap": [0.0], "density": [6.707201], "density_atomic": [18.71022], "deprecated": [false], "efermi": [5.815556], "energy_above_hull": [0.0], "energy_per_atom": [-16.07471], "formation_energy_per_atom": [-0.9308459], "homogeneous_poisson": [0.289], "is_gap_direct": [false], "is_magnetic": [false], "is_metal": [true], "is_stable": [true], "nelements": [3], "nsites": [8], "num_magnetic_sites": [0], "num_unique_magnetic_sites": [0], "theoretical": [false], "total_magnetization": [0.0], "total_magnetization_normalized_formula_units": [0.0], "total_magnetization_normalized_vol": [0.0], "uncorrected_energy_per_atom": [-16.07471], "universal_anisotropy": [0.082], "volume": [149.6817], "equilibrium_reaction_energy_per_atom": [-0.02178717]}