{"includesElement": ["", "Sb", "Ti", "Ru"], "includesElement___series_id": [5, 8], "includesElement__abundance_crust": [0.2, 5650.0, 0.001], "includesElement__atomic_number": [51, 22, 44], "includesElement__atomic_radius": [145.0, 140.0, 130.0], "includesElement__atomic_radius_rahm": [246.0, 257.0, 237.0], "includesElement__atomic_volume": [18.4, 10.6, 8.3], "includesElement__atomic_weight": [121.76, 47.867, 101.07], "includesElement__covalent_radius_cordero": [139.0, 160.0, 146.0], "includesElement__covalent_radius_pyykko": [140.0, 136.0, 125.0], "includesElement__covalent_radius_pyykko_double": [133.0, 117.0, 114.0], "includesElement__covalent_radius_pyykko_triple": [127.0, 108.0, 103.0], "includesElement__density": [6.68, 4.506, 12.1], "includesElement__dipole_polarizability": [43.0, 100.0, 72.0], "includesElement__dipole_polarizability_unc": [2.0, 10.0], "includesElement__electron_affinity": [1.046, 0.079, 1.05], "includesElement__electronegativity_allred-rochow": [0.0003214286, 0.0001703071, 0.000208], "includesElement__electronegativity_cottrell-sutton": [0.212132, 0.1521899, 0.1612452], "includesElement__electronegativity_ghosh": [0.1918774, 0.1233637, 0.1376494], "includesElement__electronegativity_gordy": [0.045, 0.02316176, 0.026], "includesElement__electronegativity_mulliken": [4.827195, 3.45356, 4.20525], "includesElement__electronegativity_nagle": [0.4880907, 0.3419952, 0.4807499], "includesElement__electronegativity_pauling": [2.05, 1.54, 2.2], "includesElement__electronegativity_sanderson": [0.7762722, 0.4055462, 0.9579373], "includesElement__en_ghosh": [0.1918774, 0.1233637, 0.1376494], "includesElement__en_pauling": [2.05, 1.54, 2.2], "includesElement__evaporation_heat": [195.2, 422.6], "includesElement__fusion_heat": [20.08, 18.8, 25.5], "includesElement__glawe_number": [91, 51, 61], "includesElement__group_id": [15, 4, 8], "includesElement__heat_of_formation": [264.4, 473.0, 650.6], "includesElement__is_radioactive": [false], "includesElement__lattice_constant": [4.51, 2.95, 2.7], "includesElement__mendeleev_number": [96, 43, 60], "includesElement__molar_heat_capacity": [25.23, 25.06, 24.06], "includesElement__period": [5, 4], "includesElement__pettifor_number": [88, 51, 63], "includesElement__specific_heat_capacity": [0.207, 0.523, 0.238], "includesElement__vdw_radius": [206.0, 211.0, 213.0], "includesElement__vdw_radius_alvarez": [247.0, 246.0], "includesElement__vdw_radius_mm3": [252.0, 239.0, 234.0], "includesElement__vdw_radius_uff": [442.0, 317.5, 296.3], "includesElement__abundance_sea": [0.00024, 0.001, 7e-07], "includesElement__atomic_weight_uncertainty": [0.001, 0.02], "includesElement__c6_gb": [504.0, 1200.0, 809.0], "includesElement__covalent_radius_bragg": [140.0], "includesElement__electronegativity_allen": [11.74, 8.17, 9.1], "includesElement__en_allen": [11.74, 8.17, 9.1], "includesElement__metallic_radius": [139.0, 132.0, 125.0], "includesElement__metallic_radius_c12": [166.0, 147.0, 134.0], "includesElement__thermal_conductivity": [24.43, 21.9, 117.0], "includesElement__vdw_radius_batsanov": [220.0, 215.0, 205.0], "includesElement__c6": [492.0, 1044.0], "includesElement__vdw_radius_dreiding": [435.0], "includesElement__vdw_radius_truhlar": [206.0], "includesElement__discovery_year": [1791, 1844], "includesElement__gas_basicity": [853.7, 751.4], "includesElement__proton_affinity": [876.0, 774.0], "formula": ["Ru1Sb1Ti1"], "spacegroup": ["216"], "thermalConductivity": [5.6113], "icsd": ["107127"], "band_gap": [0.0], "density": [7.695082], "density_atomic": [19.47144], "deprecated": [false], "efermi": [7.253875], "energy_above_hull": [0.1520736], "energy_per_atom": [-21.79849], "formation_energy_per_atom": [-0.4422829], "homogeneous_poisson": [0.409], "is_gap_direct": [false], "is_magnetic": [false], "is_metal": [true], "is_stable": [false], "nelements": [3], "nsites": [3], "num_magnetic_sites": [0], "num_unique_magnetic_sites": [0], "theoretical": [false], "total_magnetization": [0.0180123], "total_magnetization_normalized_formula_units": [0.0180123], "total_magnetization_normalized_vol": [0.0003083542], "uncorrected_energy_per_atom": [-7.554314], "universal_anisotropy": [0.704], "volume": [58.41431]}