{"includesElement": ["", "Al", "Fe", "V"], "includesElement___series_id": [7, 8], "includesElement__abundance_crust": [82300.0, 56300.0, 120.0], "includesElement__atomic_number": [13, 26, 23], "includesElement__atomic_radius": [125.0, 140.0, 135.0], "includesElement__atomic_radius_rahm": [239.0, 237.0, 252.0], "includesElement__atomic_volume": [10.0, 7.1, 8.35], "includesElement__atomic_weight": [26.98154, 55.845, 50.9415], "includesElement__covalent_radius_cordero": [121.0, 142.0, 153.0], "includesElement__covalent_radius_pyykko": [126.0, 116.0, 134.0], "includesElement__covalent_radius_pyykko_double": [113.0, 109.0, 112.0], "includesElement__covalent_radius_pyykko_triple": [111.0, 102.0, 106.0], "includesElement__density": [2.7, 7.87, 6.0], "includesElement__dipole_polarizability": [57.8, 62.0, 87.0], "includesElement__dipole_polarizability_unc": [1.0, 4.0, 10.0], "includesElement__discovery_year": [1825, 1830], "includesElement__electron_affinity": [0.43283, 0.151, 0.525], "includesElement__electronegativity_allred-rochow": [0.0002204586, 0.0002786861, 0.0001837826], "includesElement__electronegativity_cottrell-sutton": [0.1666667, 0.1797987, 0.1569295], "includesElement__electronegativity_ghosh": [0.150078, 0.1392532, 0.1273344], "includesElement__electronegativity_gordy": [0.02777778, 0.03232759, 0.02462687], "includesElement__electronegativity_mulliken": [3.209299, 4.026734, 3.635594], "includesElement__electronegativity_nagle": [0.3730192, 0.5053195, 0.3859078], "includesElement__electronegativity_pauling": [1.61, 1.83, 1.63], "includesElement__electronegativity_sanderson": [0.2360927, 0.748727, 0.4388898], "includesElement__en_ghosh": [0.150078, 0.1392532, 0.1273344], "includesElement__en_pauling": [1.61, 1.83, 1.63], "includesElement__evaporation_heat": [284.1, 340.0, 460.0], "includesElement__fusion_heat": [10.75, 13.8, 17.5], "includesElement__glawe_number": [78, 71, 54], "includesElement__group_id": [13, 8, 5], "includesElement__heat_of_formation": [330.9, 415.5, 515.5], "includesElement__is_radioactive": [false], "includesElement__lattice_constant": [4.05, 2.87, 3.02], "includesElement__mendeleev_number": [82, 59, 47], "includesElement__molar_heat_capacity": [24.2, 25.1, 24.89], "includesElement__period": [3, 4], "includesElement__pettifor_number": [80, 61, 54], "includesElement__specific_heat_capacity": [0.897, 0.449, 0.489], "includesElement__vdw_radius": [184.0, 204.0, 207.0], "includesElement__vdw_radius_alvarez": [225.0, 244.0, 242.0], "includesElement__vdw_radius_mm3": [236.0, 223.0, 229.0], "includesElement__vdw_radius_uff": [449.9, 291.2, 314.4], "includesElement__abundance_sea": [0.002, 0.0025], "includesElement__atomic_weight_uncertainty": [7e-07, 0.002, 0.0001], "includesElement__c6_gb": [520.0, 548.0, 955.0], "includesElement__covalent_radius_bragg": [135.0, 140.0], "includesElement__electronegativity_allen": [9.539, 10.64, 9.063], "includesElement__en_allen": [9.539, 10.64, 9.063], "includesElement__metallic_radius": [125.0, 117.0, 122.0], "includesElement__metallic_radius_c12": [143.0, 126.0, 134.0], "includesElement__thermal_conductivity": [237.0, 80.4, 30.7], "includesElement__vdw_radius_batsanov": [210.0, 205.0], "includesElement__c6": [528.0, 482.0, 832.0], "includesElement__is_monoisotopic": [true], "includesElement__vdw_radius_dreiding": [439.0], "includesElement__vdw_radius_truhlar": [184.0], "includesElement__gas_basicity": [731.1, 836.8], "includesElement__proton_affinity": [754.0, 859.4], "formula": ["Al1Fe2V1"], "spacegroup": ["225"], "thermalConductivity": [31.4323], "icsd": ["107814"], "band_gap": [0.0], "density": [6.956591], "density_atomic": [11.31516], "deprecated": [false], "efermi": [7.298836], "energy_above_hull": [0.0], "energy_per_atom": [-7.871144], "formation_energy_per_atom": [-0.4287626], "homogeneous_poisson": [0.242], "is_gap_direct": [false], "is_magnetic": [false], "is_metal": [true], "is_stable": [true], "nelements": [3], "nsites": [4], "num_magnetic_sites": [0], "num_unique_magnetic_sites": [0], "theoretical": [false], "total_magnetization": [0.0], "total_magnetization_normalized_formula_units": [0.0], "total_magnetization_normalized_vol": [0.0], "uncorrected_energy_per_atom": [-12.67697], "universal_anisotropy": [0.002], "volume": [45.26065], "equilibrium_reaction_energy_per_atom": [-0.1904582]}