{"includesElement": ["", "P", "Pu"], "includesElement___series_id": [1, 10], "includesElement__abundance_crust": [1050.0], "includesElement__atomic_number": [15, 94], "includesElement__atomic_radius": [100.0, 175.0], "includesElement__atomic_radius_rahm": [223.0, 278.0], "includesElement__atomic_volume": [17.0], "includesElement__atomic_weight": [30.97376, 244.0], "includesElement__covalent_radius_cordero": [107.0, 187.0], "includesElement__covalent_radius_pyykko": [111.0, 172.0], "includesElement__covalent_radius_pyykko_double": [102.0, 135.0], "includesElement__covalent_radius_pyykko_triple": [94.0], "includesElement__density": [1.823, 19.7], "includesElement__dipole_polarizability": [25.0, 132.0], "includesElement__dipole_polarizability_unc": [1.0, 20.0], "includesElement__discovery_year": [1669, 1940], "includesElement__electron_affinity": [0.746607], "includesElement__electronegativity_allred-rochow": [0.0003895788, 9.633586e-05], "includesElement__electronegativity_cottrell-sutton": [0.2079501, 0.1287236], "includesElement__electronegativity_ghosh": [0.206931, 0.16137], "includesElement__electronegativity_gordy": [0.04324324, 0.01656977], "includesElement__electronegativity_mulliken": [5.616646, 3.0129], "includesElement__electronegativity_nagle": [0.5848035, 0.3928005], "includesElement__electronegativity_pauling": [2.19, 1.3], "includesElement__electronegativity_sanderson": [0.4510269, 0.6084717], "includesElement__en_ghosh": [0.206931, 0.16137], "includesElement__en_pauling": [2.19, 1.3], "includesElement__evaporation_heat": [49.8, 343.5], "includesElement__fusion_heat": [2.51, 2.8], "includesElement__glawe_number": [89, 38], "includesElement__group_id": [15], "includesElement__heat_of_formation": [316.5, 345.0], "includesElement__is_radioactive": [false, true], "includesElement__lattice_constant": [7.17], "includesElement__mendeleev_number": [94, 24], "includesElement__molar_heat_capacity": [23.824], "includesElement__period": [3, 7], "includesElement__pettifor_number": [90, 43], "includesElement__specific_heat_capacity": [0.769], "includesElement__vdw_radius": [180.0, 243.0], "includesElement__vdw_radius_alvarez": [190.0, 281.0], "includesElement__vdw_radius_mm3": [222.0, 252.0], "includesElement__vdw_radius_uff": [414.7, 342.4], "includesElement__abundance_sea": [0.06], "includesElement__atomic_weight_uncertainty": [5e-09], "includesElement__c6_gb": [187.0], "includesElement__electronegativity_allen": [13.33], "includesElement__en_allen": [13.33], "includesElement__metallic_radius": [110.0], "includesElement__metallic_radius_c12": [128.0], "includesElement__vdw_radius_batsanov": [195.0], "includesElement__c6": [185.0], "includesElement__is_monoisotopic": [true], "includesElement__vdw_radius_dreiding": [415.0], "includesElement__gas_basicity": [604.8], "includesElement__proton_affinity": [626.8], "includesElement__vdw_radius_bondi": [180.0], "formula": ["P1Pu1"], "spacegroup": ["225"], "thermalConductivity": [12.3923], "icsd": ["647978"], "band_gap": [0.0], "density": [9.844696], "density_atomic": [23.19039], "deprecated": [false], "efermi": [9.000192], "energy_above_hull": [0.0], "energy_per_atom": [-49.22023], "formation_energy_per_atom": [-1.541023], "is_gap_direct": [false], "is_magnetic": [true], "is_metal": [true], "is_stable": [true], "nelements": [2], "nsites": [2], "num_magnetic_sites": [1], "num_unique_magnetic_sites": [1], "theoretical": [false], "total_magnetization": [4.983539], "total_magnetization_normalized_formula_units": [4.983539], "total_magnetization_normalized_vol": [0.1074484], "uncorrected_energy_per_atom": [-49.22023], "volume": [46.38078], "equilibrium_reaction_energy_per_atom": [-1.541023]}