{"includesElement": ["", "Se", "Cu", "Rh"], "includesElement___series_id": [1, 8], "includesElement__abundance_crust": [0.05, 60.0, 0.001], "includesElement__atomic_number": [34, 29, 45], "includesElement__atomic_radius": [115.0, 135.0], "includesElement__atomic_radius_rahm": [224.0, 217.0, 233.0], "includesElement__atomic_volume": [16.5, 7.1, 8.3], "includesElement__atomic_weight": [78.971, 63.546, 102.9055], "includesElement__covalent_radius_cordero": [120.0, 132.0, 142.0], "includesElement__covalent_radius_pyykko": [116.0, 112.0, 125.0], "includesElement__covalent_radius_pyykko_double": [107.0, 115.0, 110.0], "includesElement__covalent_radius_pyykko_triple": [107.0, 120.0, 106.0], "includesElement__density": [4.809, 8.96, 12.4], "includesElement__dipole_polarizability": [28.9, 46.5, 66.0], "includesElement__dipole_polarizability_unc": [1.0, 0.5, 10.0], "includesElement__discovery_year": [1818, 1803], "includesElement__electron_affinity": [2.02067, 1.235, 1.137], "includesElement__electronegativity_allred-rochow": [0.0005164982, 0.0002949617, 0.0002176], "includesElement__electronegativity_cottrell-sutton": [0.2447729, 0.1817573, 0.1649242], "includesElement__electronegativity_ghosh": [0.2240328, 0.1511716, 0.1408379], "includesElement__electronegativity_gordy": [0.05991379, 0.03303571, 0.0272], "includesElement__electronegativity_mulliken": [5.886531, 4.48069, 4.29795], "includesElement__electronegativity_nagle": [0.592131, 0.6184623, 0.5147142], "includesElement__electronegativity_pauling": [2.55, 1.9, 2.28], "includesElement__electronegativity_sanderson": [0.9659121, 0.9175542, 0.9761915], "includesElement__en_ghosh": [0.2240328, 0.1511716, 0.1408379], "includesElement__en_pauling": [2.55, 1.9, 2.28], "includesElement__evaporation_heat": [59.7, 304.6, 494.0], "includesElement__fusion_heat": [5.23, 13.01, 21.8], "includesElement__glawe_number": [95, 68, 63], "includesElement__group_id": [16, 11, 9], "includesElement__heat_of_formation": [227.2, 337.4, 556.0], "includesElement__is_radioactive": [false], "includesElement__lattice_constant": [4.36, 3.61, 3.8], "includesElement__mendeleev_number": [101, 71, 64], "includesElement__molar_heat_capacity": [25.363, 24.44, 24.98], "includesElement__period": [4, 5], "includesElement__pettifor_number": [93, 72, 66], "includesElement__specific_heat_capacity": [0.321, 0.385, 0.243], "includesElement__vdw_radius": [190.0, 196.0, 210.0], "includesElement__vdw_radius_alvarez": [182.0, 238.0, 244.0], "includesElement__vdw_radius_mm3": [229.0, 226.0, 234.0], "includesElement__vdw_radius_uff": [420.5, 349.5, 292.9], "includesElement__abundance_sea": [0.0002, 0.00025], "includesElement__atomic_weight_uncertainty": [0.008, 0.003, 2e-05], "includesElement__c6_gb": [233.0, 264.0, 708.0], "includesElement__covalent_radius_bragg": [117.0, 137.0], "includesElement__electronegativity_allen": [14.34, 10.96, 9.259], "includesElement__en_allen": [14.34, 10.96, 9.259], "includesElement__metallic_radius": [117.0, 118.0, 125.0], "includesElement__metallic_radius_c12": [140.0, 128.0, 134.0], "includesElement__thermal_conductivity": [0.52, 401.0, 150.0], "includesElement__vdw_radius_batsanov": [190.0, 200.0], "includesElement__c6": [210.0, 253.0], "includesElement__vdw_radius_dreiding": [403.0], "includesElement__vdw_radius_bondi": [190.0], "includesElement__gas_basicity": [632.4, 745.4], "includesElement__proton_affinity": [655.3, 768.0], "includesElement__is_monoisotopic": [true], "formula": ["Cu2Rh4Se8"], "spacegroup": ["227"], "thermalConductivity": [0.956171], "icsd": ["41903"], "band_gap": [0.0], "density": [7.105876], "density_atomic": [19.53599], "deprecated": [false], "efermi": [4.304235], "energy_above_hull": [0.0], "energy_per_atom": [-17.10511], "formation_energy_per_atom": [-0.4814711], "is_gap_direct": [false], "is_magnetic": [false], "is_metal": [true], "is_stable": [true], "nelements": [3], "nsites": [14], "num_magnetic_sites": [0], "num_unique_magnetic_sites": [0], "theoretical": [false], "total_magnetization": [0.0001287], "total_magnetization_normalized_formula_units": [6.435e-05], "total_magnetization_normalized_vol": [4.7056e-07], "uncorrected_energy_per_atom": [-17.10511], "volume": [273.5039], "equilibrium_reaction_energy_per_atom": [-0.03896288]}