{"includesElement": ["", "Si", "V", "B"], "includesElement___series_id": [5, 8], "includesElement__abundance_crust": [282000.0, 120.0, 10.0], "includesElement__atomic_number": [14, 23, 5], "includesElement__atomic_radius": [110.0, 135.0, 85.0], "includesElement__atomic_radius_rahm": [232.0, 252.0, 205.0], "includesElement__atomic_volume": [12.1, 8.35, 4.6], "includesElement__atomic_weight": [28.085, 50.9415, 10.81], "includesElement__covalent_radius_cordero": [111.0, 153.0, 84.0], "includesElement__covalent_radius_pyykko": [116.0, 134.0, 85.0], "includesElement__covalent_radius_pyykko_double": [107.0, 112.0, 78.0], "includesElement__covalent_radius_pyykko_triple": [102.0, 106.0, 73.0], "includesElement__density": [2.3296, 6.0, 2.34], "includesElement__dipole_polarizability": [37.3, 87.0, 20.5], "includesElement__dipole_polarizability_unc": [0.7, 10.0, 0.1], "includesElement__discovery_year": [1824, 1830, 1808], "includesElement__electron_affinity": [1.389521, 0.525, 0.279723], "includesElement__electronegativity_allred-rochow": [0.0003084126, 0.0001837826, 0.0003598616], "includesElement__electronegativity_cottrell-sutton": [0.1891451, 0.1569295, 0.1748949], "includesElement__electronegativity_ghosh": [0.178503, 0.1273344, 0.184886], "includesElement__electronegativity_gordy": [0.03577586, 0.02462687, 0.03058824], "includesElement__electronegativity_mulliken": [4.770602, 3.635594, 4.288871], "includesElement__electronegativity_nagle": [0.4750986, 0.3859078, 0.5269739], "includesElement__electronegativity_pauling": [1.9, 1.63, 2.04], "includesElement__electronegativity_sanderson": [0.3468158, 0.4388898, 0.2546274], "includesElement__en_ghosh": [0.178503, 0.1273344, 0.184886], "includesElement__en_pauling": [1.9, 1.63, 2.04], "includesElement__evaporation_heat": [383.0, 460.0, 504.5], "includesElement__fusion_heat": [50.6, 17.5, 23.6], "includesElement__glawe_number": [85, 54, 86], "includesElement__group_id": [14, 5, 13], "includesElement__heat_of_formation": [450.0, 515.5, 565.0], "includesElement__is_radioactive": [false], "includesElement__lattice_constant": [5.43, 3.02, 8.73], "includesElement__mendeleev_number": [88, 47, 81], "includesElement__molar_heat_capacity": [19.99, 24.89, 11.087], "includesElement__period": [3, 4, 2], "includesElement__pettifor_number": [85, 54, 86], "includesElement__specific_heat_capacity": [0.712, 0.489, 1.026], "includesElement__vdw_radius": [210.0, 207.0, 192.0], "includesElement__vdw_radius_alvarez": [219.0, 242.0, 191.0], "includesElement__vdw_radius_mm3": [229.0, 215.0], "includesElement__vdw_radius_uff": [429.5, 314.4, 408.3], "includesElement__abundance_sea": [2.2, 0.0025, 4.44], "includesElement__c6_gb": [308.0, 955.0, 99.2], "includesElement__covalent_radius_bragg": [117.0], "includesElement__electronegativity_allen": [11.33, 9.063, 12.13], "includesElement__en_allen": [11.33, 9.063, 12.13], "includesElement__metallic_radius": [117.0, 122.0, 80.0], "includesElement__metallic_radius_c12": [138.0, 134.0, 98.0], "includesElement__thermal_conductivity": [149.0, 30.7, 27.4], "includesElement__vdw_radius_batsanov": [210.0, 205.0, 180.0], "includesElement__c6": [305.0, 832.0, 99.5], "includesElement__vdw_radius_dreiding": [427.0, 402.0], "includesElement__gas_basicity": [814.1, 836.8], "includesElement__proton_affinity": [837.0, 859.4], "includesElement__vdw_radius_bondi": [210.0], "includesElement__atomic_weight_uncertainty": [0.0001], "includesElement__vdw_radius_truhlar": [192.0], "formula": ["B4Si2V10"], "spacegroup": ["140"], "thermalConductivity": [18.6293], "icsd": ["44490"], "band_gap": [0.0], "density": [5.6919], "density_atomic": [11.10115], "deprecated": [false], "efermi": [6.996207], "energy_above_hull": [0.0], "energy_per_atom": [-12.48093], "formation_energy_per_atom": [-0.7416345], "is_gap_direct": [false], "is_magnetic": [false], "is_metal": [true], "is_stable": [true], "nelements": [3], "nsites": [16], "num_magnetic_sites": [0], "num_unique_magnetic_sites": [0], "theoretical": [false], "total_magnetization": [0.0], "total_magnetization_normalized_formula_units": [0.0], "total_magnetization_normalized_vol": [0.0], "uncorrected_energy_per_atom": [-12.48093], "volume": [177.6184], "equilibrium_reaction_energy_per_atom": [-0.04120113]}