{"includesElement": ["", "Ag", "Cl"], "includesElement___series_id": [8, 6], "includesElement__abundance_crust": [0.075, 145.0], "includesElement__atomic_number": [47, 17], "includesElement__atomic_radius": [160.0, 100.0], "includesElement__atomic_radius_rahm": [225.0, 206.0], "includesElement__atomic_volume": [10.3, 18.7], "includesElement__atomic_weight": [107.8682, 35.45], "includesElement__covalent_radius_cordero": [145.0, 102.0], "includesElement__covalent_radius_pyykko": [128.0, 99.0], "includesElement__covalent_radius_pyykko_double": [139.0, 95.0], "includesElement__covalent_radius_pyykko_triple": [137.0, 93.0], "includesElement__density": [10.5, 0.002898], "includesElement__dipole_polarizability": [55.0, 14.6], "includesElement__dipole_polarizability_unc": [8.0, 0.1], "includesElement__electron_affinity": [1.302, 3.612725], "includesElement__electronegativity_allred-rochow": [0.0002258301, 0.0006223855], "includesElement__electronegativity_cottrell-sutton": [0.1700184, 0.248226], "includesElement__electronegativity_ghosh": [0.1472165, 0.263803], "includesElement__electronegativity_gordy": [0.02890625, 0.06161616], "includesElement__electronegativity_mulliken": [4.439117, 8.290178], "includesElement__electronegativity_nagle": [0.5848035, 0.7826755], "includesElement__electronegativity_pauling": [1.93, 3.16], "includesElement__electronegativity_sanderson": [0.9437955, 0.8123773], "includesElement__en_ghosh": [0.1472165, 0.263803], "includesElement__en_pauling": [1.93, 3.16], "includesElement__evaporation_heat": [254.1, 20.41], "includesElement__fusion_heat": [11.95, 6.41], "includesElement__glawe_number": [67, 101], "includesElement__group_id": [11, 17], "includesElement__heat_of_formation": [284.9, 121.302], "includesElement__is_radioactive": [false], "includesElement__lattice_constant": [4.09, 6.24], "includesElement__mendeleev_number": [72, 107], "includesElement__molar_heat_capacity": [25.35, 33.949], "includesElement__period": [5, 3], "includesElement__pettifor_number": [71, 99], "includesElement__specific_heat_capacity": [0.235, 0.479], "includesElement__vdw_radius": [211.0, 175.0], "includesElement__vdw_radius_alvarez": [253.0, 182.0], "includesElement__vdw_radius_mm3": [243.0, 207.0], "includesElement__vdw_radius_uff": [314.8, 394.7], "includesElement__abundance_sea": [4e-05, 19400.0], "includesElement__atomic_weight_uncertainty": [0.0002], "includesElement__c6_gb": [341.0, 97.1], "includesElement__covalent_radius_bragg": [177.0, 105.0], "includesElement__electronegativity_allen": [11.05, 16.97], "includesElement__en_allen": [11.05, 16.97], "includesElement__metallic_radius": [134.0], "includesElement__metallic_radius_c12": [144.0, 91.0], "includesElement__thermal_conductivity": [429.0, 0.009], "includesElement__vdw_radius_batsanov": [210.0, 180.0], "includesElement__discovery_year": [1774], "includesElement__c6": [94.6], "includesElement__vdw_radius_dreiding": [395.03], "includesElement__gas_basicity": [490.1], "includesElement__proton_affinity": [513.6], "includesElement__vdw_radius_bondi": [175.0], "includesElement__vdw_radius_rt": [176.0], "formula": ["Ag1Cl1", "AgCl"], "mp_id": ["mp-22922"], "spacegroup": ["225"], "thermalConductivity": [0.615131, 0.4995561, 0.52104], "icsd": ["157535"], "band_gap": [0.9522], "density": [5.582623], "density_atomic": [21.31529], "deprecated": [false], "efermi": [1.494745], "energy_above_hull": [0.0], "energy_per_atom": [-14.3226], "formation_energy_per_atom": [-0.5684399], "homogeneous_poisson": [0.424], "is_gap_direct": [false], "is_magnetic": [false], "is_metal": [false], "is_stable": [true], "nelements": [2], "nsites": [2], "num_magnetic_sites": [0], "num_unique_magnetic_sites": [0], "theoretical": [false], "total_magnetization": [0.0], "total_magnetization_normalized_formula_units": [0.0], "total_magnetization_normalized_vol": [0.0], "uncorrected_energy_per_atom": [-14.3226], "universal_anisotropy": [0.242], "volume": [42.63058], "cbm": [2.3624], "e_electronic": [5.753168], "e_ionic": [5.661744], "e_total": [11.41491], "equilibrium_reaction_energy_per_atom": [-0.1522809], "n": [2.398576], "vbm": [1.4102]}