{"includesElement": ["", "Ni", "Sn", "Sc"], "includesElement___series_id": [8, 7], "includesElement__abundance_crust": [84.0, 2.3, 22.0], "includesElement__atomic_number": [28, 50, 21], "includesElement__atomic_radius": [135.0, 145.0, 160.0], "includesElement__atomic_radius_rahm": [229.0, 248.0, 263.0], "includesElement__atomic_volume": [6.6, 16.3, 15.0], "includesElement__atomic_weight": [58.6934, 118.71, 44.95591], "includesElement__covalent_radius_cordero": [124.0, 139.0, 170.0], "includesElement__covalent_radius_pyykko": [110.0, 140.0, 148.0], "includesElement__covalent_radius_pyykko_double": [101.0, 130.0, 116.0], "includesElement__covalent_radius_pyykko_triple": [101.0, 132.0, 114.0], "includesElement__density": [8.9, 7.287, 2.99], "includesElement__dipole_polarizability": [49.0, 53.0, 97.0], "includesElement__dipole_polarizability_unc": [3.0, 6.0, 10.0], "includesElement__discovery_year": [1751, 1879], "includesElement__electron_affinity": [1.156, 1.112067, 0.188], "includesElement__electronegativity_allred-rochow": [0.0003347107, 0.0002882653, 0.0001369613], "includesElement__electronegativity_cottrell-sutton": [0.1918806, 0.2008909, 0.1423737], "includesElement__electronegativity_ghosh": [0.1472068, 0.178052, 0.1193833], "includesElement__electronegativity_gordy": [0.03681818, 0.04035714, 0.02027027], "includesElement__electronegativity_mulliken": [4.397939, 4.227992, 3.374745], "includesElement__electronegativity_nagle": [0.588755, 0.4225986, 0.3138941], "includesElement__electronegativity_pauling": [1.91, 1.96, 1.36], "includesElement__electronegativity_sanderson": [0.937704, 0.7622797, 0.3038674], "includesElement__en_ghosh": [0.1472068, 0.178052, 0.1193833], "includesElement__en_pauling": [1.91, 1.96, 1.36], "includesElement__evaporation_heat": [378.6, 296.0, 332.7], "includesElement__fusion_heat": [17.61, 7.07, 15.8], "includesElement__glawe_number": [69, 83, 48], "includesElement__group_id": [10, 14, 3], "includesElement__heat_of_formation": [430.1, 301.2, 377.8], "includesElement__is_radioactive": [false], "includesElement__lattice_constant": [3.52, 5.82, 3.31], "includesElement__mendeleev_number": [67, 90, 11], "includesElement__molar_heat_capacity": [26.07, 26.99, 25.52], "includesElement__period": [4, 5], "includesElement__pettifor_number": [67, 83, 20], "includesElement__specific_heat_capacity": [0.444, 0.227, 0.568], "includesElement__vdw_radius": [197.0, 217.0, 215.0], "includesElement__vdw_radius_alvarez": [240.0, 242.0, 258.0], "includesElement__vdw_radius_mm3": [222.0, 259.0, 261.0], "includesElement__vdw_radius_uff": [283.4, 439.2, 329.5], "includesElement__abundance_sea": [0.00056, 4e-06, 6e-07], "includesElement__atomic_weight_uncertainty": [0.0004, 0.007, 5e-06], "includesElement__c6_gb": [393.0, 715.0, 1570.0], "includesElement__covalent_radius_bragg": [135.0, 140.0], "includesElement__electronegativity_allen": [11.13, 10.79, 7.042], "includesElement__en_allen": [11.13, 10.79, 7.042], "includesElement__metallic_radius": [115.0, 142.0, 144.0], "includesElement__metallic_radius_c12": [124.0, 163.0, 162.0], "includesElement__thermal_conductivity": [90.9, 66.8, 15.8], "includesElement__vdw_radius_batsanov": [200.0, 225.0, 230.0], "includesElement__c6": [373.0, 659.0, 1383.0], "includesElement__gas_basicity": [714.1, 892.0], "includesElement__proton_affinity": [737.0, 914.0], "includesElement__vdw_radius_dreiding": [447.0], "includesElement__vdw_radius_bondi": [217.0], "includesElement__is_monoisotopic": [true], "formula": ["Ni2Sc1Sn1"], "spacegroup": ["225"], "thermalConductivity": [5.89955], "icsd": ["105339"], "band_gap": [0.0], "density": [7.780865], "density_atomic": [14.99509], "deprecated": [false], "efermi": [8.39196], "energy_above_hull": [0.0], "energy_per_atom": [-6.027252], "formation_energy_per_atom": [-0.5516732], "homogeneous_poisson": [0.322], "is_gap_direct": [false], "is_magnetic": [false], "is_metal": [true], "is_stable": [true], "nelements": [3], "nsites": [4], "num_magnetic_sites": [0], "num_unique_magnetic_sites": [0], "theoretical": [false], "total_magnetization": [3.99e-05], "total_magnetization_normalized_formula_units": [3.99e-05], "total_magnetization_normalized_vol": [6.652178e-07], "uncorrected_energy_per_atom": [-15.55058], "universal_anisotropy": [0.893], "volume": [59.98035], "equilibrium_reaction_energy_per_atom": [-0.02696911]}