{"includesElement": ["", "Rh", "Lu", "C"], "includesElement___series_id": [8, 1], "includesElement__abundance_crust": [0.001, 0.8, 200.0], "includesElement__atomic_number": [45, 71, 6], "includesElement__atomic_radius": [135.0, 175.0, 70.0], "includesElement__atomic_radius_rahm": [233.0, 270.0, 190.0], "includesElement__atomic_volume": [8.3, 17.8, 5.3], "includesElement__atomic_weight": [102.9055, 174.9668, 12.011], "includesElement__covalent_radius_cordero": [142.0, 187.0, 73.0], "includesElement__covalent_radius_pyykko": [125.0, 162.0, 75.0], "includesElement__covalent_radius_pyykko_double": [110.0, 131.0, 67.0], "includesElement__covalent_radius_pyykko_triple": [106.0, 131.0, 60.0], "includesElement__density": [12.4, 9.84, 2.2], "includesElement__dipole_polarizability": [66.0, 137.0, 11.3], "includesElement__dipole_polarizability_unc": [10.0, 7.0, 0.2], "includesElement__discovery_year": [1803, 1907], "includesElement__electron_affinity": [1.137, 0.34, 1.262119], "includesElement__electronegativity_allred-rochow": [0.0002176, 0.0001143118, 0.0005777778], "includesElement__electronegativity_cottrell-sutton": [0.1649242, 0.1360828, 0.2081666], "includesElement__electronegativity_ghosh": [0.1408379, 0.22565, 0.224776], "includesElement__electronegativity_gordy": [0.0272, 0.01851852, 0.04333333], "includesElement__electronegativity_mulliken": [4.29795, 2.882935, 6.261208], "includesElement__electronegativity_nagle": [0.5147142, 0.4987805, 0.7073926], "includesElement__electronegativity_pauling": [2.28, 1.0, 2.55], "includesElement__electronegativity_sanderson": [0.9761915, 0.6027398, 0.427525], "includesElement__en_ghosh": [0.1408379, 0.22565, 0.224776], "includesElement__en_pauling": [2.28, 1.0, 2.55], "includesElement__evaporation_heat": [494.0, 414.0], "includesElement__fusion_heat": [21.8], "includesElement__glawe_number": [63, 19, 87], "includesElement__group_id": [9, 14], "includesElement__heat_of_formation": [556.0, 427.6, 716.87], "includesElement__is_radioactive": [false], "includesElement__lattice_constant": [3.8, 3.51, 3.57], "includesElement__mendeleev_number": [64, 41, 87], "includesElement__molar_heat_capacity": [24.98, 26.86, 8.517], "includesElement__period": [5, 6, 2], "includesElement__pettifor_number": [66, 21, 95], "includesElement__specific_heat_capacity": [0.243, 0.154, 0.709], "includesElement__vdw_radius": [210.0, 224.0, 170.0], "includesElement__vdw_radius_alvarez": [244.0, 274.0, 177.0], "includesElement__vdw_radius_mm3": [234.0, 265.0, 204.0], "includesElement__vdw_radius_uff": [292.9, 364.0, 385.1], "includesElement__atomic_weight_uncertainty": [2e-05, 0.0001], "includesElement__c6_gb": [708.0, 2020.0, 47.9], "includesElement__electronegativity_allen": [9.259, 6.455, 15.05], "includesElement__en_allen": [9.259, 6.455, 15.05], "includesElement__metallic_radius": [125.0], "includesElement__metallic_radius_c12": [134.0, 86.0], "includesElement__thermal_conductivity": [150.0, 1.59], "includesElement__vdw_radius_batsanov": [200.0, 170.0], "includesElement__is_monoisotopic": [true], "includesElement__gas_basicity": [745.4, 970.6], "includesElement__proton_affinity": [768.0, 992.0], "includesElement__abundance_sea": [1.5e-07, 28.0], "includesElement__covalent_radius_bragg": [77.0], "includesElement__c6": [46.6], "includesElement__vdw_radius_dreiding": [389.83], "includesElement__vdw_radius_bondi": [170.0], "includesElement__vdw_radius_rt": [177.0], "formula": ["C1Lu1Rh3"], "spacegroup": ["221"], "thermalConductivity": [8.26097], "icsd": ["77151"], "band_gap": [0.0], "density": [11.80829], "density_atomic": [13.94139], "deprecated": [false], "efermi": [6.196341], "energy_above_hull": [0.0], "energy_per_atom": [-7.720696], "formation_energy_per_atom": [-0.5520412], "homogeneous_poisson": [0.317], "is_gap_direct": [false], "is_magnetic": [false], "is_metal": [true], "is_stable": [true], "nelements": [3], "nsites": [5], "num_magnetic_sites": [0], "num_unique_magnetic_sites": [0], "theoretical": [false], "total_magnetization": [1.38e-05], "total_magnetization_normalized_formula_units": [1.38e-05], "total_magnetization_normalized_vol": [1.979717e-07], "uncorrected_energy_per_atom": [-24.70584], "universal_anisotropy": [0.021], "volume": [69.70694], "equilibrium_reaction_energy_per_atom": [-0.08181085]}