{"includesElement": ["", "Ir", "Mo", "B"], "includesElement___series_id": [8, 5], "includesElement__abundance_crust": [0.001, 1.2, 10.0], "includesElement__atomic_number": [77, 42, 5], "includesElement__atomic_radius": [135.0, 145.0, 85.0], "includesElement__atomic_radius_rahm": [240.0, 244.0, 205.0], "includesElement__atomic_volume": [8.54, 9.4, 4.6], "includesElement__atomic_weight": [192.217, 95.95, 10.81], "includesElement__covalent_radius_cordero": [141.0, 154.0, 84.0], "includesElement__covalent_radius_pyykko": [122.0, 138.0, 85.0], "includesElement__covalent_radius_pyykko_double": [115.0, 121.0, 78.0], "includesElement__covalent_radius_pyykko_triple": [107.0, 113.0, 73.0], "includesElement__density": [22.5622, 10.2, 2.34], "includesElement__dipole_polarizability": [54.0, 87.0, 20.5], "includesElement__dipole_polarizability_unc": [7.0, 6.0, 0.1], "includesElement__discovery_year": [1804, 1778, 1808], "includesElement__electron_affinity": [1.5638, 0.748, 0.279723], "includesElement__electronegativity_allred-rochow": [0.0002620263, 0.0001549044, 0.0003598616], "includesElement__electronegativity_cottrell-sutton": [0.1787938, 0.1462081, 0.1748949], "includesElement__electronegativity_ghosh": [0.25106, 0.1312672, 0.184886], "includesElement__electronegativity_gordy": [0.03196721, 0.02137681, 0.03058824], "includesElement__electronegativity_mulliken": [5.26541, 3.920215, 4.288871], "includesElement__electronegativity_nagle": [0.5503212, 0.4100883, 0.5269739], "includesElement__electronegativity_pauling": [2.2, 2.16, 2.04], "includesElement__electronegativity_sanderson": [1.475998, 0.685295, 0.2546274], "includesElement__en_ghosh": [0.25106, 0.1312672, 0.184886], "includesElement__en_pauling": [2.2, 2.16, 2.04], "includesElement__evaporation_heat": [604.0, 590.0, 504.5], "includesElement__fusion_heat": [27.61, 28.0, 23.6], "includesElement__glawe_number": [62, 56, 86], "includesElement__group_id": [9, 6, 13], "includesElement__heat_of_formation": [669.0, 658.98, 565.0], "includesElement__is_radioactive": [false], "includesElement__lattice_constant": [3.84, 3.15, 8.73], "includesElement__mendeleev_number": [65, 52, 81], "includesElement__molar_heat_capacity": [25.1, 24.06, 11.087], "includesElement__period": [6, 5, 2], "includesElement__pettifor_number": [65, 55, 86], "includesElement__specific_heat_capacity": [0.131, 0.251, 1.026], "includesElement__vdw_radius": [213.0, 217.0, 192.0], "includesElement__vdw_radius_alvarez": [241.0, 245.0, 191.0], "includesElement__vdw_radius_mm3": [236.0, 239.0, 215.0], "includesElement__vdw_radius_uff": [284.0, 305.2, 408.3], "includesElement__atomic_weight_uncertainty": [0.003, 0.01], "includesElement__c6_gb": [522.0, 1030.0, 99.2], "includesElement__electronegativity_allen": [9.96, 8.71, 12.13], "includesElement__en_allen": [9.96, 8.71, 12.13], "includesElement__metallic_radius": [127.0, 130.0, 80.0], "includesElement__metallic_radius_c12": [136.0, 139.0, 98.0], "includesElement__thermal_conductivity": [147.0, 27.4], "includesElement__vdw_radius_batsanov": [200.0, 210.0, 180.0], "includesElement__abundance_sea": [0.01, 4.44], "includesElement__c6": [99.5], "includesElement__vdw_radius_dreiding": [402.0], "includesElement__vdw_radius_truhlar": [192.0], "formula": ["B8Ir4Mo8"], "spacegroup": ["58"], "thermalConductivity": [8.03588], "icsd": ["23786"], "band_gap": [0.0], "density": [11.8038], "density_atomic": [11.41518], "deprecated": [false], "efermi": [9.310374], "energy_above_hull": [0.03672642], "energy_per_atom": [-24.27087], "formation_energy_per_atom": [-0.4316707], "is_gap_direct": [false], "is_magnetic": [false], "is_metal": [true], "is_stable": [false], "nelements": [3], "nsites": [20], "num_magnetic_sites": [0], "num_unique_magnetic_sites": [0], "theoretical": [false], "total_magnetization": [7.29e-05], "total_magnetization_normalized_formula_units": [1.8225e-05], "total_magnetization_normalized_vol": [3.193117e-07], "uncorrected_energy_per_atom": [-9.186256], "volume": [228.3036]}