{"includesElement": ["", "Bi", "Sc"], "includesElement___series_id": [7, 8], "includesElement__abundance_crust": [0.0085, 22.0], "includesElement__atomic_number": [83, 21], "includesElement__atomic_radius": [160.0], "includesElement__atomic_radius_rahm": [250.0, 263.0], "includesElement__atomic_volume": [21.3, 15.0], "includesElement__atomic_weight": [208.9804, 44.95591], "includesElement__covalent_radius_cordero": [148.0, 170.0], "includesElement__covalent_radius_pyykko": [151.0, 148.0], "includesElement__covalent_radius_pyykko_double": [141.0, 116.0], "includesElement__covalent_radius_pyykko_triple": [135.0, 114.0], "includesElement__density": [9.79, 2.99], "includesElement__dipole_polarizability": [48.0, 97.0], "includesElement__dipole_polarizability_unc": [4.0, 10.0], "includesElement__electron_affinity": [0.942362, 0.188], "includesElement__electronegativity_allred-rochow": [0.0002763037, 0.0001369613], "includesElement__electronegativity_cottrell-sutton": [0.2042593, 0.1423737], "includesElement__electronegativity_ghosh": [0.182377, 0.1193833], "includesElement__electronegativity_gordy": [0.04172185, 0.02027027], "includesElement__electronegativity_mulliken": [4.113939, 3.374745], "includesElement__electronegativity_nagle": [0.470518, 0.3138941], "includesElement__electronegativity_pauling": [1.9, 1.36], "includesElement__electronegativity_sanderson": [0.8136501, 0.3038674], "includesElement__en_ghosh": [0.182377, 0.1193833], "includesElement__en_pauling": [1.9, 1.36], "includesElement__evaporation_heat": [172.0, 332.7], "includesElement__fusion_heat": [11.0, 15.8], "includesElement__glawe_number": [92, 48], "includesElement__group_id": [15, 3], "includesElement__heat_of_formation": [209.6, 377.8], "includesElement__is_radioactive": [false], "includesElement__lattice_constant": [4.75, 3.31], "includesElement__mendeleev_number": [97, 11], "includesElement__molar_heat_capacity": [25.52], "includesElement__period": [6, 4], "includesElement__pettifor_number": [87, 20], "includesElement__specific_heat_capacity": [0.122, 0.568], "includesElement__vdw_radius": [207.0, 215.0], "includesElement__vdw_radius_alvarez": [254.0, 258.0], "includesElement__vdw_radius_mm3": [266.0, 261.0], "includesElement__vdw_radius_uff": [437.0, 329.5], "includesElement__abundance_sea": [2e-05, 6e-07], "includesElement__atomic_weight_uncertainty": [1e-05, 5e-06], "includesElement__c6_gb": [513.0, 1570.0], "includesElement__covalent_radius_bragg": [148.0], "includesElement__electronegativity_allen": [11.9, 7.042], "includesElement__en_allen": [11.9, 7.042], "includesElement__metallic_radius": [151.0, 144.0], "includesElement__metallic_radius_c12": [178.0, 162.0], "includesElement__thermal_conductivity": [7.9, 15.8], "includesElement__vdw_radius_batsanov": [230.0], "includesElement__is_monoisotopic": [true], "includesElement__vdw_radius_truhlar": [207.0], "includesElement__discovery_year": [1879], "includesElement__c6": [1383.0], "includesElement__gas_basicity": [892.0], "includesElement__proton_affinity": [914.0], "formula": ["Bi1Sc1"], "spacegroup": ["225"], "thermalConductivity": [6.46014], "icsd": ["58856"], "band_gap": [0.0], "density": [7.715017], "density_atomic": [27.32795], "deprecated": [false], "efermi": [5.741044], "energy_above_hull": [0.0], "energy_per_atom": [-5.768673], "formation_energy_per_atom": [-0.6821934], "homogeneous_poisson": [0.286], "is_gap_direct": [false], "is_magnetic": [false], "is_metal": [true], "is_stable": [true], "nelements": [2], "nsites": [2], "num_magnetic_sites": [0], "num_unique_magnetic_sites": [0], "theoretical": [false], "total_magnetization": [4e-07], "total_magnetization_normalized_formula_units": [4e-07], "total_magnetization_normalized_vol": [7.318516e-09], "uncorrected_energy_per_atom": [-35.76037], "universal_anisotropy": [1.466], "volume": [54.65589], "equilibrium_reaction_energy_per_atom": [-0.1883259]}