{"includesElement": ["", "Te", "Pu"], "includesElement___series_id": [5, 10], "includesElement__abundance_crust": [0.001], "includesElement__atomic_number": [52, 94], "includesElement__atomic_radius": [140.0, 175.0], "includesElement__atomic_radius_rahm": [242.0, 278.0], "includesElement__atomic_volume": [20.5], "includesElement__atomic_weight": [127.6, 244.0], "includesElement__covalent_radius_cordero": [138.0, 187.0], "includesElement__covalent_radius_pyykko": [136.0, 172.0], "includesElement__covalent_radius_pyykko_double": [128.0, 135.0], "includesElement__covalent_radius_pyykko_triple": [121.0], "includesElement__density": [6.232, 19.7], "includesElement__dipole_polarizability": [38.0, 132.0], "includesElement__dipole_polarizability_unc": [4.0, 20.0], "includesElement__discovery_year": [1782, 1940], "includesElement__electron_affinity": [1.970876], "includesElement__electronegativity_allred-rochow": [0.0003757569, 9.633586e-05], "includesElement__electronegativity_cottrell-sutton": [0.2260596, 0.1287236], "includesElement__electronegativity_ghosh": [0.2056992, 0.16137], "includesElement__electronegativity_gordy": [0.05110294, 0.01656977], "includesElement__electronegativity_mulliken": [5.490268, 3.0129], "includesElement__electronegativity_nagle": [0.5404919, 0.3928005], "includesElement__electronegativity_pauling": [2.1, 1.3], "includesElement__electronegativity_sanderson": [0.8622506, 0.6084717], "includesElement__en_ghosh": [0.2056992, 0.16137], "includesElement__en_pauling": [2.1, 1.3], "includesElement__evaporation_heat": [49.8, 343.5], "includesElement__fusion_heat": [17.91, 2.8], "includesElement__glawe_number": [94, 38], "includesElement__group_id": [16], "includesElement__heat_of_formation": [196.6, 345.0], "includesElement__is_radioactive": [false, true], "includesElement__lattice_constant": [4.45], "includesElement__mendeleev_number": [102, 24], "includesElement__molar_heat_capacity": [25.73], "includesElement__period": [5, 7], "includesElement__pettifor_number": [92, 43], "includesElement__specific_heat_capacity": [0.202], "includesElement__vdw_radius": [206.0, 243.0], "includesElement__vdw_radius_alvarez": [199.0, 281.0], "includesElement__vdw_radius_mm3": [244.0, 252.0], "includesElement__vdw_radius_uff": [447.0, 342.4], "includesElement__atomic_weight_uncertainty": [0.03], "includesElement__c6_gb": [471.0], "includesElement__covalent_radius_bragg": [133.0], "includesElement__electronegativity_allen": [12.76], "includesElement__en_allen": [12.76], "includesElement__metallic_radius": [137.0], "includesElement__metallic_radius_c12": [160.0], "includesElement__thermal_conductivity": [14.3], "includesElement__vdw_radius_batsanov": [210.0], "includesElement__c6": [445.0], "includesElement__vdw_radius_dreiding": [423.0], "includesElement__vdw_radius_bondi": [206.0], "formula": ["Pu1Te1"], "spacegroup": ["221"], "thermalConductivity": [5.06453], "icsd": ["54352"], "band_gap": [0.0], "density": [11.20672], "density_atomic": [27.53063], "deprecated": [false], "efermi": [10.50463], "energy_above_hull": [0.07750081], "energy_per_atom": [-9.966323], "formation_energy_per_atom": [-1.025704], "homogeneous_poisson": [-0.045], "is_gap_direct": [false], "is_magnetic": [true], "is_metal": [true], "is_stable": [false], "nelements": [2], "nsites": [2], "num_magnetic_sites": [1], "num_unique_magnetic_sites": [1], "theoretical": [false], "total_magnetization": [6.000035], "total_magnetization_normalized_formula_units": [6.000035], "total_magnetization_normalized_vol": [0.1089702], "uncorrected_energy_per_atom": [-9.755323], "universal_anisotropy": [0.042], "volume": [55.06127]}