{"includesElement": ["", "Bi", "Pd", "Pb"], "includesElement___series_id": [7, 8], "includesElement__abundance_crust": [0.0085, 0.015, 14.0], "includesElement__atomic_number": [83, 46, 82], "includesElement__atomic_radius": [160.0, 140.0, 180.0], "includesElement__atomic_radius_rahm": [250.0, 215.0, 249.0], "includesElement__atomic_volume": [21.3, 8.9, 18.3], "includesElement__atomic_weight": [208.9804, 106.42, 207.2], "includesElement__covalent_radius_cordero": [148.0, 139.0, 146.0], "includesElement__covalent_radius_pyykko": [151.0, 120.0, 144.0], "includesElement__covalent_radius_pyykko_double": [141.0, 117.0, 135.0], "includesElement__covalent_radius_pyykko_triple": [135.0, 112.0, 137.0], "includesElement__density": [9.79, 12.0, 11.3], "includesElement__dipole_polarizability": [48.0, 26.14, 47.0], "includesElement__dipole_polarizability_unc": [4.0, 0.1, 3.0], "includesElement__electron_affinity": [0.942362, 0.562, 0.3567432], "includesElement__electronegativity_allred-rochow": [0.0002763037, 0.0004756944, 0.000272473], "includesElement__electronegativity_cottrell-sutton": [0.2042593, 0.2389212, 0.1980811], "includesElement__electronegativity_ghosh": [0.182377, 0.1440276, 0.177911], "includesElement__electronegativity_gordy": [0.04172185, 0.05708333, 0.03923611], "includesElement__electronegativity_mulliken": [4.113939, 4.44943, 3.886711], "includesElement__electronegativity_nagle": [0.470518, 0.7259357, 0.4398663], "includesElement__electronegativity_pauling": [1.9, 2.2, 1.8], "includesElement__electronegativity_sanderson": [0.8136501, 1.124263, 0.9313226], "includesElement__en_ghosh": [0.182377, 0.1440276, 0.177911], "includesElement__en_pauling": [1.9, 2.2, 1.8], "includesElement__evaporation_heat": [172.0, 372.4, 177.8], "includesElement__fusion_heat": [11.0, 17.24, 4.77], "includesElement__glawe_number": [92, 65, 82], "includesElement__group_id": [15, 10, 14], "includesElement__heat_of_formation": [209.6, 376.6, 195.2], "includesElement__is_radioactive": [false], "includesElement__lattice_constant": [4.75, 3.89, 4.95], "includesElement__mendeleev_number": [97, 68, 91], "includesElement__molar_heat_capacity": [25.52, 25.98, 26.84], "includesElement__period": [6, 5], "includesElement__pettifor_number": [87, 69, 82], "includesElement__specific_heat_capacity": [0.122, 0.246, 0.13], "includesElement__vdw_radius": [207.0, 210.0, 202.0], "includesElement__vdw_radius_alvarez": [254.0, 215.0, 260.0], "includesElement__vdw_radius_mm3": [266.0, 237.0, 274.0], "includesElement__vdw_radius_uff": [437.0, 289.9, 429.7], "includesElement__abundance_sea": [2e-05, 3e-05], "includesElement__atomic_weight_uncertainty": [1e-05, 0.01, 0.1], "includesElement__c6_gb": [513.0, 628.0, 534.0], "includesElement__covalent_radius_bragg": [148.0], "includesElement__electronegativity_allen": [11.9, 9.402, 10.97], "includesElement__en_allen": [11.9, 9.402, 10.97], "includesElement__metallic_radius": [151.0, 128.0, 150.0], "includesElement__metallic_radius_c12": [178.0, 137.0, 170.0], "includesElement__thermal_conductivity": [7.9, 71.8, 35.3], "includesElement__vdw_radius_batsanov": [230.0, 205.0], "includesElement__is_monoisotopic": [true], "includesElement__vdw_radius_truhlar": [207.0], "includesElement__discovery_year": [1803], "includesElement__gas_basicity": [673.4], "includesElement__proton_affinity": [696.0], "includesElement__vdw_radius_bondi": [202.0], "formula": ["Bi4Pb4Pd8"], "spacegroup": ["36"], "thermalConductivity": [0.481477], "icsd": ["56278"], "band_gap": [0.0], "density": [12.31561], "density_atomic": [21.20303], "deprecated": [false], "efermi": [6.677174], "energy_above_hull": [0.0002362581], "energy_per_atom": [-4.786575], "formation_energy_per_atom": [-0.3083498], "is_gap_direct": [false], "is_magnetic": [false], "is_metal": [true], "is_stable": [false], "nelements": [3], "nsites": [16], "num_magnetic_sites": [0], "num_unique_magnetic_sites": [0], "theoretical": [false], "total_magnetization": [0.0], "total_magnetization_normalized_formula_units": [0.0], "total_magnetization_normalized_vol": [0.0], "uncorrected_energy_per_atom": [-40.45276], "volume": [339.2485]}