{"includesElement": ["", "Ru", "Re"], "includesElement___series_id": [8], "includesElement__abundance_crust": [0.001, 0.0007], "includesElement__atomic_number": [44, 75], "includesElement__atomic_radius": [130.0, 135.0], "includesElement__atomic_radius_rahm": [237.0, 249.0], "includesElement__atomic_volume": [8.3, 8.85], "includesElement__atomic_weight": [101.07, 186.207], "includesElement__covalent_radius_cordero": [146.0, 151.0], "includesElement__covalent_radius_pyykko": [125.0, 131.0], "includesElement__covalent_radius_pyykko_double": [114.0, 119.0], "includesElement__covalent_radius_pyykko_triple": [103.0, 110.0], "includesElement__density": [12.1, 20.8], "includesElement__dipole_polarizability": [72.0, 62.0], "includesElement__dipole_polarizability_unc": [10.0, 3.0], "includesElement__discovery_year": [1844, 1925], "includesElement__electron_affinity": [1.05, 0.15], "includesElement__electronegativity_allred-rochow": [0.000208, 0.000209778], "includesElement__electronegativity_cottrell-sutton": [0.1612452, 0.1657737], "includesElement__electronegativity_ghosh": [0.1376494, 0.2435164], "includesElement__electronegativity_gordy": [0.026, 0.02748092], "includesElement__electronegativity_mulliken": [4.20525, 3.99176], "includesElement__electronegativity_nagle": [0.4807499, 0.4833208], "includesElement__electronegativity_pauling": [2.2, 1.9], "includesElement__electronegativity_sanderson": [0.9579373, 1.174592], "includesElement__en_ghosh": [0.1376494, 0.2435164], "includesElement__en_pauling": [2.2, 1.9], "includesElement__fusion_heat": [25.5, 34.0], "includesElement__glawe_number": [61, 58], "includesElement__group_id": [8, 7], "includesElement__heat_of_formation": [650.6, 774.0], "includesElement__is_radioactive": [false], "includesElement__lattice_constant": [2.7, 2.76], "includesElement__mendeleev_number": [60, 57], "includesElement__molar_heat_capacity": [24.06, 25.48], "includesElement__period": [5, 6], "includesElement__pettifor_number": [63, 59], "includesElement__specific_heat_capacity": [0.238, 0.137], "includesElement__vdw_radius": [213.0, 216.0], "includesElement__vdw_radius_alvarez": [246.0, 249.0], "includesElement__vdw_radius_mm3": [234.0, 237.0], "includesElement__vdw_radius_uff": [296.3, 295.4], "includesElement__abundance_sea": [7e-07, 4e-06], "includesElement__atomic_weight_uncertainty": [0.02, 0.001], "includesElement__c6_gb": [809.0, 663.0], "includesElement__electronegativity_allen": [9.1, 9.46], "includesElement__en_allen": [9.1, 9.46], "includesElement__metallic_radius": [125.0, 128.0], "includesElement__metallic_radius_c12": [134.0, 137.0], "includesElement__thermal_conductivity": [117.0, 48.0], "includesElement__vdw_radius_batsanov": [205.0], "includesElement__gas_basicity": [751.4], "includesElement__proton_affinity": [774.0], "includesElement__evaporation_heat": [704.0], "formula": ["Re3Ru1"], "spacegroup": ["44"], "thermalConductivity": [26.4135], "icsd": ["168956"], "band_gap": [0.0], "density": [18.9073], "density_atomic": [14.48439], "deprecated": [false], "efermi": [7.602563], "energy_above_hull": [0.0], "energy_per_atom": [-45.72021], "formation_energy_per_atom": [-0.05611682], "is_gap_direct": [false], "is_magnetic": [false], "is_metal": [true], "is_stable": [true], "nelements": [2], "nsites": [4], "num_magnetic_sites": [0], "num_unique_magnetic_sites": [0], "theoretical": [true], "total_magnetization": [0.0], "total_magnetization_normalized_formula_units": [0.0], "total_magnetization_normalized_vol": [0.0], "uncorrected_energy_per_atom": [-45.72021], "volume": [57.93755], "equilibrium_reaction_energy_per_atom": [-0.0271121]}