{"includesElement": ["", "As", "U"], "includesElement___series_id": [5, 10], "includesElement__abundance_crust": [1.8, 2.7], "includesElement__atomic_number": [33, 92], "includesElement__atomic_radius": [115.0, 175.0], "includesElement__atomic_radius_rahm": [231.0, 283.0], "includesElement__atomic_volume": [13.1, 12.5], "includesElement__atomic_weight": [74.92159, 238.0289], "includesElement__covalent_radius_cordero": [119.0, 196.0], "includesElement__covalent_radius_pyykko": [121.0, 170.0], "includesElement__covalent_radius_pyykko_double": [114.0, 134.0], "includesElement__covalent_radius_pyykko_triple": [106.0, 118.0], "includesElement__density": [5.75, 19.1], "includesElement__dipole_polarizability": [30.0, 129.0], "includesElement__dipole_polarizability_unc": [1.0, 17.0], "includesElement__electron_affinity": [0.804], "includesElement__electronegativity_allred-rochow": [0.0004302985, 0.0001038062], "includesElement__electronegativity_cottrell-sutton": [0.22818, 0.1328422], "includesElement__electronegativity_ghosh": [0.2068208, 0.13207], "includesElement__electronegativity_gordy": [0.05206612, 0.01764706], "includesElement__electronegativity_mulliken": [5.2965, 3.097025], "includesElement__electronegativity_nagle": [0.5503212, 0.3596283], "includesElement__electronegativity_pauling": [2.18, 1.7], "includesElement__electronegativity_sanderson": [0.8253373, 0.618118], "includesElement__en_ghosh": [0.2068208, 0.13207], "includesElement__en_pauling": [2.18, 1.7], "includesElement__evaporation_heat": [32.4, 417.0], "includesElement__glawe_number": [90, 36], "includesElement__group_id": [15], "includesElement__heat_of_formation": [302.5, 533.0], "includesElement__is_radioactive": [false, true], "includesElement__lattice_constant": [4.13, 2.85], "includesElement__mendeleev_number": [95, 20], "includesElement__molar_heat_capacity": [24.64, 27.665], "includesElement__period": [4, 7], "includesElement__pettifor_number": [89, 45], "includesElement__specific_heat_capacity": [0.329, 0.116], "includesElement__vdw_radius": [185.0, 241.0], "includesElement__vdw_radius_alvarez": [188.0, 271.0], "includesElement__vdw_radius_mm3": [236.0, 252.0], "includesElement__vdw_radius_uff": [423.0, 339.5], "includesElement__abundance_sea": [0.0037, 0.0032], "includesElement__atomic_weight_uncertainty": [6e-06, 3e-05], "includesElement__c6_gb": [260.0], "includesElement__covalent_radius_bragg": [126.0], "includesElement__electronegativity_allen": [13.08], "includesElement__en_allen": [13.08], "includesElement__metallic_radius": [121.0], "includesElement__metallic_radius_c12": [148.0], "includesElement__vdw_radius_batsanov": [205.0, 230.0], "includesElement__c6": [246.0], "includesElement__is_monoisotopic": [true], "includesElement__vdw_radius_dreiding": [415.0], "includesElement__vdw_radius_bondi": [185.0], "includesElement__discovery_year": [1789], "includesElement__fusion_heat": [12.6], "includesElement__thermal_conductivity": [27.5], "includesElement__gas_basicity": [973.2], "includesElement__proton_affinity": [995.2], "formula": ["As1U1"], "spacegroup": ["221"], "thermalConductivity": [0.781781], "icsd": ["44079"], "band_gap": [0.0], "density": [12.05658], "density_atomic": [21.55117], "deprecated": [false], "efermi": [9.923777], "energy_above_hull": [0.1300241], "energy_per_atom": [-48.34025], "formation_energy_per_atom": [-1.01547], "homogeneous_poisson": [0.366], "is_gap_direct": [false], "is_magnetic": [true], "is_metal": [true], "is_stable": [false], "nelements": [2], "nsites": [2], "num_magnetic_sites": [1], "num_unique_magnetic_sites": [1], "theoretical": [false], "total_magnetization": [2.864063], "total_magnetization_normalized_formula_units": [2.864063], "total_magnetization_normalized_vol": [0.06644797], "uncorrected_energy_per_atom": [-8.566717], "universal_anisotropy": [1.646], "volume": [43.10233]}