{"includesElement": ["", "Mg", "Al", "Cr"], "includesElement___series_id": [4, 7, 8], "includesElement__abundance_crust": [23300.0, 82300.0, 102.0], "includesElement__atomic_number": [12, 13, 24], "includesElement__atomic_radius": [150.0, 125.0, 140.0], "includesElement__atomic_radius_rahm": [240.0, 239.0, 233.0], "includesElement__atomic_volume": [14.0, 10.0, 7.23], "includesElement__atomic_weight": [24.305, 26.98154, 51.9961], "includesElement__covalent_radius_cordero": [141.0, 121.0, 139.0], "includesElement__covalent_radius_pyykko": [139.0, 126.0, 122.0], "includesElement__covalent_radius_pyykko_double": [132.0, 113.0, 111.0], "includesElement__covalent_radius_pyykko_triple": [127.0, 111.0, 103.0], "includesElement__density": [1.74, 2.7, 7.15], "includesElement__dipole_polarizability": [71.2, 57.8, 83.0], "includesElement__dipole_polarizability_unc": [0.4, 1.0, 12.0], "includesElement__discovery_year": [1808, 1825, 1797], "includesElement__electronegativity_allred-rochow": [0.0001475079, 0.0002204586, 0.0001981994], "includesElement__electronegativity_cottrell-sutton": [0.1431908, 0.1666667, 0.1555003], "includesElement__electronegativity_ghosh": [0.121644, 0.150078, 0.1313053], "includesElement__electronegativity_gordy": [0.0205036, 0.02777778, 0.02418033], "includesElement__electronegativity_mulliken": [3.823117, 3.209299, 3.716255], "includesElement__electronegativity_nagle": [0.3039835, 0.3730192, 0.4165729], "includesElement__electronegativity_pauling": [1.31, 1.61, 1.66], "includesElement__electronegativity_sanderson": [0.1524211, 0.2360927, 0.6017723], "includesElement__en_ghosh": [0.121644, 0.150078, 0.1313053], "includesElement__en_pauling": [1.31, 1.61, 1.66], "includesElement__evaporation_heat": [131.8, 284.1, 342.0], "includesElement__fusion_heat": [9.2, 10.75, 21.0], "includesElement__glawe_number": [73, 78, 55], "includesElement__group_id": [2, 13, 6], "includesElement__heat_of_formation": [147.1, 330.9, 397.48], "includesElement__is_radioactive": [false], "includesElement__lattice_constant": [3.21, 4.05, 2.88], "includesElement__mendeleev_number": [76, 82, 51], "includesElement__molar_heat_capacity": [24.869, 24.2, 23.35], "includesElement__period": [3, 4], "includesElement__pettifor_number": [73, 80, 57], "includesElement__specific_heat_capacity": [1.023, 0.897, 0.449], "includesElement__vdw_radius": [173.0, 184.0, 206.0], "includesElement__vdw_radius_alvarez": [251.0, 225.0, 245.0], "includesElement__vdw_radius_mm3": [243.0, 236.0, 225.0], "includesElement__vdw_radius_uff": [302.1, 449.9, 302.3], "includesElement__abundance_sea": [1290.0, 0.002, 0.0003], "includesElement__c6_gb": [629.0, 520.0, 709.0], "includesElement__covalent_radius_bragg": [142.0, 135.0, 140.0], "includesElement__electronegativity_allen": [7.646, 9.539, 9.77], "includesElement__en_allen": [7.646, 9.539, 9.77], "includesElement__metallic_radius": [136.0, 125.0, 119.0], "includesElement__metallic_radius_c12": [160.0, 143.0, 128.0], "includesElement__thermal_conductivity": [156.0, 237.0, 93.9], "includesElement__vdw_radius_batsanov": [220.0, 210.0, 205.0], "includesElement__c6": [626.0, 528.0, 602.0], "includesElement__gas_basicity": [797.3, 768.4], "includesElement__proton_affinity": [819.6, 791.3], "includesElement__vdw_radius_bondi": [173.0], "includesElement__electron_affinity": [0.43283, 0.666], "includesElement__atomic_weight_uncertainty": [7e-07, 0.0006], "includesElement__is_monoisotopic": [true], "includesElement__vdw_radius_dreiding": [439.0], "includesElement__vdw_radius_truhlar": [184.0], "formula": ["Al36Cr4Mg6"], "spacegroup": ["227"], "thermalConductivity": [2.18173], "icsd": ["57659"], "band_gap": [0.0], "density": [2.952358], "density_atomic": [16.20269], "deprecated": [false], "efermi": [7.35595], "energy_above_hull": [0.0], "energy_per_atom": [-4.078889], "formation_energy_per_atom": [-0.09550299], "is_gap_direct": [false], "is_magnetic": [true], "is_metal": [true], "is_stable": [true], "nelements": [3], "nsites": [46], "num_magnetic_sites": [4], "num_unique_magnetic_sites": [1], "theoretical": [false], "total_magnetization": [5.643395], "total_magnetization_normalized_formula_units": [2.821697], "total_magnetization_normalized_vol": [0.007571736], "uncorrected_energy_per_atom": [-7.217471], "volume": [745.3238], "equilibrium_reaction_energy_per_atom": [-0.01608298]}