{"includesElement": ["", "S", "Mn", "Lu"], "includesElement___series_id": [1, 8], "includesElement__abundance_crust": [350.0, 950.0, 0.8], "includesElement__atomic_number": [16, 25, 71], "includesElement__atomic_radius": [100.0, 140.0, 175.0], "includesElement__atomic_radius_rahm": [214.0, 242.0, 270.0], "includesElement__atomic_volume": [15.5, 7.39, 17.8], "includesElement__atomic_weight": [32.06, 54.93804, 174.9668], "includesElement__covalent_radius_cordero": [105.0, 150.0, 187.0], "includesElement__covalent_radius_pyykko": [103.0, 119.0, 162.0], "includesElement__covalent_radius_pyykko_double": [94.0, 105.0, 131.0], "includesElement__covalent_radius_pyykko_triple": [95.0, 103.0, 131.0], "includesElement__density": [2.07, 7.3, 9.84], "includesElement__dipole_polarizability": [19.4, 68.0, 137.0], "includesElement__dipole_polarizability_unc": [0.1, 9.0, 7.0], "includesElement__electron_affinity": [2.077104, 0.34], "includesElement__electronegativity_allred-rochow": [0.0005137148, 0.0002542193, 0.0001143118], "includesElement__electronegativity_cottrell-sutton": [0.2300274, 0.1739313, 0.1360828], "includesElement__electronegativity_ghosh": [0.23596, 0.1352844, 0.22565], "includesElement__electronegativity_gordy": [0.05291262, 0.0302521, 0.01851852], "includesElement__electronegativity_mulliken": [6.218557, 3.717009, 2.882935], "includesElement__electronegativity_nagle": [0.6762644, 0.4686656, 0.4987805], "includesElement__electronegativity_pauling": [2.58, 1.55, 1.0], "includesElement__electronegativity_sanderson": [0.6397251, 0.6707264, 0.6027398], "includesElement__en_ghosh": [0.23596, 0.1352844, 0.22565], "includesElement__en_pauling": [2.58, 1.55, 1.0], "includesElement__evaporation_heat": [10.5, 221.0, 414.0], "includesElement__fusion_heat": [1.23, 13.4], "includesElement__glawe_number": [96, 72, 19], "includesElement__group_id": [16, 7], "includesElement__heat_of_formation": [277.17, 283.3, 427.6], "includesElement__is_radioactive": [false], "includesElement__lattice_constant": [10.47, 8.89, 3.51], "includesElement__mendeleev_number": [100, 55, 41], "includesElement__molar_heat_capacity": [22.7, 26.32, 26.86], "includesElement__period": [3, 4, 6], "includesElement__pettifor_number": [94, 60, 21], "includesElement__specific_heat_capacity": [0.708, 0.479, 0.154], "includesElement__vdw_radius": [180.0, 205.0, 224.0], "includesElement__vdw_radius_alvarez": [189.0, 245.0, 274.0], "includesElement__vdw_radius_mm3": [215.0, 224.0, 265.0], "includesElement__vdw_radius_uff": [403.5, 296.1, 364.0], "includesElement__abundance_sea": [905.0, 0.0002, 1.5e-07], "includesElement__c6_gb": [140.0, 635.0, 2020.0], "includesElement__covalent_radius_bragg": [102.0, 147.0], "includesElement__electronegativity_allen": [15.31, 10.34, 6.455], "includesElement__en_allen": [15.31, 10.34, 6.455], "includesElement__metallic_radius": [104.0, 118.0], "includesElement__metallic_radius_c12": [127.0], "includesElement__thermal_conductivity": [0.27], "includesElement__vdw_radius_batsanov": [180.0, 205.0], "includesElement__c6": [134.0, 552.0], "includesElement__vdw_radius_dreiding": [403.0], "includesElement__gas_basicity": [640.2, 774.4, 970.6], "includesElement__proton_affinity": [664.3, 797.3, 992.0], "includesElement__vdw_radius_bondi": [180.0], "includesElement__vdw_radius_rt": [181.0], "includesElement__discovery_year": [1774, 1907], "includesElement__atomic_weight_uncertainty": [3e-06, 0.0001], "includesElement__is_monoisotopic": [true], "formula": ["Lu4Mn2S8"], "spacegroup": ["227"], "thermalConductivity": [3.82868], "icsd": ["37421"], "band_gap": [0.0], "density": [5.502108], "density_atomic": [22.98565], "deprecated": [false], "efermi": [3.289419], "energy_above_hull": [0.0], "energy_per_atom": [-6.897405], "formation_energy_per_atom": [-1.931858], "is_gap_direct": [false], "is_magnetic": [true], "is_metal": [true], "is_stable": [true], "nelements": [3], "nsites": [14], "num_magnetic_sites": [2], "num_unique_magnetic_sites": [1], "theoretical": [false], "total_magnetization": [0.0], "total_magnetization_normalized_formula_units": [0.0], "total_magnetization_normalized_vol": [0.0], "uncorrected_energy_per_atom": [-19.60317], "volume": [321.7991], "equilibrium_reaction_energy_per_atom": [-0.02605285]}