{"includesElement": ["", "As", "Zn", "K"], "includesElement___series_id": [5, 8, 3], "includesElement__abundance_crust": [1.8, 70.0, 20900.0], "includesElement__atomic_number": [33, 30, 19], "includesElement__atomic_radius": [115.0, 135.0, 220.0], "includesElement__atomic_radius_rahm": [231.0, 222.0, 234.0], "includesElement__atomic_volume": [13.1, 9.2, 45.3], "includesElement__atomic_weight": [74.92159, 65.38, 39.0983], "includesElement__covalent_radius_cordero": [119.0, 122.0, 203.0], "includesElement__covalent_radius_pyykko": [121.0, 118.0, 196.0], "includesElement__covalent_radius_pyykko_double": [114.0, 120.0, 193.0], "includesElement__covalent_radius_pyykko_triple": [106.0], "includesElement__density": [5.75, 7.134, 0.89], "includesElement__dipole_polarizability": [30.0, 38.67, 289.7], "includesElement__dipole_polarizability_unc": [1.0, 0.3], "includesElement__electron_affinity": [0.804, 0.50147], "includesElement__electronegativity_allred-rochow": [0.0004302985, 0.0003124102, 5.726781e-05], "includesElement__electronegativity_cottrell-sutton": [0.22818, 0.1920011, 0.1059457], "includesElement__electronegativity_ghosh": [0.2068208, 0.1551518, 0.0981896], "includesElement__electronegativity_gordy": [0.05206612, 0.03686441, 0.01122449], "includesElement__electronegativity_mulliken": [5.2965, 4.6971, 2.421067], "includesElement__electronegativity_nagle": [0.5503212, 0.6770213, 0.1511299], "includesElement__electronegativity_pauling": [2.18, 1.65, 0.82], "includesElement__electronegativity_sanderson": [0.8253373, 0.8100877, 0.1218383], "includesElement__en_ghosh": [0.2068208, 0.1551518, 0.0981896], "includesElement__en_pauling": [2.18, 1.65, 0.82], "includesElement__evaporation_heat": [32.4, 114.8, 2.33], "includesElement__glawe_number": [90, 74, 10], "includesElement__group_id": [15, 12, 1], "includesElement__heat_of_formation": [302.5, 130.4, 89.0], "includesElement__is_radioactive": [false], "includesElement__lattice_constant": [4.13, 2.66, 5.23], "includesElement__mendeleev_number": [95, 77, 3], "includesElement__molar_heat_capacity": [24.64, 25.39, 29.6], "includesElement__period": [4], "includesElement__pettifor_number": [89, 76, 10], "includesElement__specific_heat_capacity": [0.329, 0.388, 0.757], "includesElement__vdw_radius": [185.0, 201.0, 275.0], "includesElement__vdw_radius_alvarez": [188.0, 239.0, 273.0], "includesElement__vdw_radius_mm3": [236.0, 229.0, 309.0], "includesElement__vdw_radius_uff": [423.0, 276.3, 381.2], "includesElement__abundance_sea": [0.0037, 0.0049, 399.0], "includesElement__atomic_weight_uncertainty": [6e-06, 0.02, 0.0001], "includesElement__c6_gb": [260.0, 276.0, 3910.0], "includesElement__covalent_radius_bragg": [126.0, 132.0, 207.0], "includesElement__electronegativity_allen": [13.08, 9.395, 4.34], "includesElement__en_allen": [13.08, 9.395, 4.34], "includesElement__metallic_radius": [121.0, 203.0], "includesElement__metallic_radius_c12": [148.0, 134.0, 235.0], "includesElement__vdw_radius_batsanov": [205.0, 210.0, 280.0], "includesElement__c6": [246.0, 284.0, 3923.0], "includesElement__is_monoisotopic": [true], "includesElement__vdw_radius_dreiding": [415.0], "includesElement__vdw_radius_bondi": [185.0, 275.0], "includesElement__fusion_heat": [7.28, 102.5], "includesElement__thermal_conductivity": [116.0, 79.0], "includesElement__gas_basicity": [586.0], "includesElement__proton_affinity": [608.6], "includesElement__discovery_year": [1807], "formula": ["As1K1Zn1"], "spacegroup": ["187"], "thermalConductivity": [3.52403], "icsd": ["43985"], "band_gap": [0.1991], "density": [3.770154], "density_atomic": [26.34275], "deprecated": [false], "efermi": [1.585164], "energy_above_hull": [0.009145843], "energy_per_atom": [-2.809893], "formation_energy_per_atom": [-0.4561476], "homogeneous_poisson": [0.227], "is_gap_direct": [false], "is_magnetic": [false], "is_metal": [false], "is_stable": [false], "nelements": [3], "nsites": [3], "num_magnetic_sites": [0], "num_unique_magnetic_sites": [0], "theoretical": [false], "total_magnetization": [0.0], "total_magnetization_normalized_formula_units": [0.0], "total_magnetization_normalized_vol": [0.0], "uncorrected_energy_per_atom": [-10.46976], "universal_anisotropy": [2.136], "volume": [79.02825], "cbm": [1.6795], "e_electronic": [32.99501], "e_ionic": [5.019936], "e_total": [38.01494], "n": [5.744128], "vbm": [1.4804], "e_ij_max": [0.310427]}