{"includesElement": ["", "Ga", "Tb", "Os"], "includesElement___series_id": [7, 9, 8], "includesElement__abundance_crust": [19.0, 1.2, 0.0015], "includesElement__atomic_number": [31, 65, 76], "includesElement__atomic_radius": [130.0, 175.0], "includesElement__atomic_radius_rahm": [233.0, 276.0, 244.0], "includesElement__atomic_volume": [11.8, 19.2, 8.43], "includesElement__atomic_weight": [69.723, 158.9254, 190.23], "includesElement__covalent_radius_cordero": [122.0, 194.0, 144.0], "includesElement__covalent_radius_pyykko": [124.0, 168.0, 129.0], "includesElement__covalent_radius_pyykko_double": [117.0, 135.0, 116.0], "includesElement__covalent_radius_pyykko_triple": [121.0, 109.0], "includesElement__density": [5.91, 8.23, 22.5872], "includesElement__dipole_polarizability": [50.0, 170.0, 57.0], "includesElement__dipole_polarizability_unc": [3.0, 20.0], "includesElement__discovery_year": [1875, 1843, 1804], "includesElement__electron_affinity": [0.43, 1.165, 1.1], "includesElement__electronegativity_allred-rochow": [0.0003251821, 0.0001009779, 0.000225347], "includesElement__electronegativity_cottrell-sutton": [0.2008048, 0.130247, 0.1704986], "includesElement__electronegativity_ghosh": [0.1723773, 0.198863, 0.2479845], "includesElement__electronegativity_gordy": [0.04032258, 0.01696429, 0.02906977], "includesElement__electronegativity_mulliken": [3.214651, 3.5144, 4.769115], "includesElement__electronegativity_nagle": [0.3914868, 0.4014652, 0.5196828], "includesElement__electronegativity_pauling": [1.81, 2.2], "includesElement__electronegativity_sanderson": [0.720541, 0.5163695, 1.239276], "includesElement__en_ghosh": [0.1723773, 0.198863, 0.2479845], "includesElement__en_pauling": [1.81, 2.2], "includesElement__evaporation_heat": [270.3, 389.0, 738.0], "includesElement__fusion_heat": [5.59, 31.7], "includesElement__glawe_number": [79, 25, 60], "includesElement__group_id": [13, 8], "includesElement__heat_of_formation": [271.96, 388.7, 787.0], "includesElement__is_radioactive": [false], "includesElement__lattice_constant": [4.51, 3.6, 2.74], "includesElement__mendeleev_number": [83, 29, 61], "includesElement__molar_heat_capacity": [26.03, 28.91, 24.7], "includesElement__period": [4, 6], "includesElement__pettifor_number": [81, 26, 62], "includesElement__specific_heat_capacity": [0.373, 0.182, 0.13], "includesElement__vdw_radius": [187.0, 233.0, 216.0], "includesElement__vdw_radius_alvarez": [232.0, 279.0, 248.0], "includesElement__vdw_radius_mm3": [246.0, 270.0, 235.0], "includesElement__vdw_radius_uff": [438.3, 345.1, 312.0], "includesElement__abundance_sea": [3e-05, 1.4e-07], "includesElement__atomic_weight_uncertainty": [0.001, 2e-05, 0.03], "includesElement__c6_gb": [456.0, 2590.0, 584.0], "includesElement__electronegativity_allen": [10.39, 9.78], "includesElement__en_allen": [10.39, 9.78], "includesElement__metallic_radius": [125.0, 126.0], "includesElement__metallic_radius_c12": [140.0, 135.0], "includesElement__thermal_conductivity": [28.1, 11.1], "includesElement__vdw_radius_batsanov": [210.0, 200.0], "includesElement__c6": [498.0], "includesElement__vdw_radius_dreiding": [439.0], "includesElement__vdw_radius_bondi": [187.0], "includesElement__is_monoisotopic": [true], "formula": ["Ga9Os3Tb3"], "spacegroup": ["221"], "thermalConductivity": [2.87509], "icsd": ["412144"], "band_gap": [0.0], "density": [10.63319], "density_atomic": [17.43822], "deprecated": [false], "efermi": [4.660849], "energy_above_hull": [0.0], "energy_per_atom": [-24.27441], "formation_energy_per_atom": [-0.5664108], "is_gap_direct": [false], "is_magnetic": [false], "is_metal": [true], "is_stable": [true], "nelements": [3], "nsites": [15], "num_magnetic_sites": [0], "num_unique_magnetic_sites": [0], "theoretical": [false], "total_magnetization": [0.0304491], "total_magnetization_normalized_formula_units": [0.0101497], "total_magnetization_normalized_vol": [0.0001164075], "uncorrected_energy_per_atom": [-24.27441], "volume": [261.5733], "equilibrium_reaction_energy_per_atom": [-0.01182911]}