{"includesElement": ["", "Be", "Dy"], "includesElement___series_id": [4, 9], "includesElement__abundance_crust": [2.8, 5.2], "includesElement__atomic_number": [4, 66], "includesElement__atomic_radius": [105.0, 175.0], "includesElement__atomic_radius_rahm": [219.0, 275.0], "includesElement__atomic_volume": [5.0, 19.0], "includesElement__atomic_weight": [9.012183, 162.5], "includesElement__covalent_radius_cordero": [96.0, 192.0], "includesElement__covalent_radius_pyykko": [102.0, 167.0], "includesElement__covalent_radius_pyykko_double": [90.0, 133.0], "includesElement__covalent_radius_pyykko_triple": [85.0], "includesElement__density": [1.85, 8.55], "includesElement__dipole_polarizability": [37.74, 163.0], "includesElement__dipole_polarizability_unc": [0.03, 15.0], "includesElement__discovery_year": [1798, 1886], "includesElement__electron_affinity": [-2.4, 0.352], "includesElement__electronegativity_allred-rochow": [0.0001874279, 0.0001021908], "includesElement__electronegativity_cottrell-sutton": [0.1382666, 0.1306364], "includesElement__electronegativity_ghosh": [0.144986, 0.20333], "includesElement__electronegativity_gordy": [0.01911765, 0.01706587], "includesElement__electronegativity_mulliken": [3.461349, 3.145525], "includesElement__electronegativity_nagle": [0.3756148, 0.4191131], "includesElement__electronegativity_pauling": [1.57, 1.22], "includesElement__electronegativity_sanderson": [0.1268473, 0.5297338], "includesElement__en_ghosh": [0.144986, 0.20333], "includesElement__en_pauling": [1.57, 1.22], "includesElement__evaporation_heat": [309.0, 291.0], "includesElement__fusion_heat": [12.21], "includesElement__glawe_number": [77, 24], "includesElement__group_id": [2], "includesElement__heat_of_formation": [324.0, 290.4], "includesElement__is_radioactive": [false], "includesElement__lattice_constant": [2.29, 3.59], "includesElement__mendeleev_number": [75, 31], "includesElement__molar_heat_capacity": [16.443, 28.16], "includesElement__period": [2, 6], "includesElement__pettifor_number": [77, 25], "includesElement__specific_heat_capacity": [1.825, 0.173], "includesElement__vdw_radius": [153.0, 231.0], "includesElement__vdw_radius_alvarez": [198.0, 287.0], "includesElement__vdw_radius_mm3": [223.0, 290.0], "includesElement__vdw_radius_uff": [274.5, 342.8], "includesElement__abundance_sea": [5.6e-06, 9.1e-07], "includesElement__atomic_weight_uncertainty": [5e-07, 0.001], "includesElement__c6_gb": [214.0, 2430.0], "includesElement__covalent_radius_bragg": [115.0], "includesElement__electronegativity_allen": [9.323], "includesElement__en_allen": [9.323], "includesElement__metallic_radius": [89.0], "includesElement__metallic_radius_c12": [112.0], "includesElement__thermal_conductivity": [201.0, 10.7], "includesElement__vdw_radius_batsanov": [190.0], "includesElement__c6": [227.0], "includesElement__is_monoisotopic": [true], "includesElement__vdw_radius_truhlar": [153.0], "formula": ["Be26Dy2"], "spacegroup": ["226"], "thermalConductivity": [12.9931], "icsd": ["58707"], "band_gap": [0.0], "density": [3.500811], "density_atomic": [9.475021], "deprecated": [false], "efermi": [4.078161], "energy_above_hull": [0.0], "energy_per_atom": [-3.987542], "formation_energy_per_atom": [-0.1853465], "is_gap_direct": [false], "is_magnetic": [false], "is_metal": [true], "is_stable": [true], "nelements": [2], "nsites": [28], "num_magnetic_sites": [0], "num_unique_magnetic_sites": [0], "theoretical": [false], "total_magnetization": [1e-07], "total_magnetization_normalized_formula_units": [5e-08], "total_magnetization_normalized_vol": [3.76931e-10], "uncorrected_energy_per_atom": [-6.515053], "volume": [265.3006], "equilibrium_reaction_energy_per_atom": [-0.1853465]}