{"includesElement": ["", "Y", "B", "Re"], "includesElement___series_id": [8, 5], "includesElement__abundance_crust": [33.0, 10.0, 0.0007], "includesElement__atomic_number": [39, 5, 75], "includesElement__atomic_radius": [180.0, 85.0, 135.0], "includesElement__atomic_radius_rahm": [274.0, 205.0, 249.0], "includesElement__atomic_volume": [19.8, 4.6, 8.85], "includesElement__atomic_weight": [88.90584, 10.81, 186.207], "includesElement__covalent_radius_cordero": [190.0, 84.0, 151.0], "includesElement__covalent_radius_pyykko": [163.0, 85.0, 131.0], "includesElement__covalent_radius_pyykko_double": [130.0, 78.0, 119.0], "includesElement__covalent_radius_pyykko_triple": [124.0, 73.0, 110.0], "includesElement__density": [4.47, 2.34, 20.8], "includesElement__dipole_polarizability": [162.0, 20.5, 62.0], "includesElement__dipole_polarizability_unc": [12.0, 0.1, 3.0], "includesElement__discovery_year": [1789, 1808, 1925], "includesElement__electron_affinity": [0.307, 0.279723, 0.15], "includesElement__electronegativity_allred-rochow": [0.0001129135, 0.0003598616, 0.000209778], "includesElement__electronegativity_cottrell-sutton": [0.1356647, 0.1748949, 0.1657737], "includesElement__electronegativity_ghosh": [0.1216986, 0.184886, 0.2435164], "includesElement__electronegativity_gordy": [0.01840491, 0.03058824, 0.02748092], "includesElement__electronegativity_mulliken": [3.26213, 4.288871, 3.99176], "includesElement__electronegativity_nagle": [0.2645668, 0.5269739, 0.4833208], "includesElement__electronegativity_pauling": [1.22, 2.04, 1.9], "includesElement__electronegativity_sanderson": [0.3923941, 0.2546274, 1.174592], "includesElement__en_ghosh": [0.1216986, 0.184886, 0.2435164], "includesElement__en_pauling": [1.22, 2.04, 1.9], "includesElement__evaporation_heat": [367.0, 504.5, 704.0], "includesElement__fusion_heat": [11.5, 23.6, 34.0], "includesElement__glawe_number": [21, 86, 58], "includesElement__group_id": [3, 13, 7], "includesElement__heat_of_formation": [424.7, 565.0, 774.0], "includesElement__is_radioactive": [false], "includesElement__lattice_constant": [3.65, 8.73, 2.76], "includesElement__mendeleev_number": [12, 81, 57], "includesElement__molar_heat_capacity": [26.53, 11.087, 25.48], "includesElement__period": [5, 2, 6], "includesElement__pettifor_number": [19, 86, 59], "includesElement__specific_heat_capacity": [0.298, 1.026, 0.137], "includesElement__vdw_radius": [232.0, 192.0, 216.0], "includesElement__vdw_radius_alvarez": [275.0, 191.0, 249.0], "includesElement__vdw_radius_mm3": [271.0, 215.0, 237.0], "includesElement__vdw_radius_uff": [334.5, 408.3, 295.4], "includesElement__abundance_sea": [1.3e-05, 4.44, 4e-06], "includesElement__atomic_weight_uncertainty": [2e-05, 0.001], "includesElement__c6_gb": [2600.0, 99.2, 663.0], "includesElement__electronegativity_allen": [6.631, 12.13, 9.46], "includesElement__en_allen": [6.631, 12.13, 9.46], "includesElement__metallic_radius": [162.0, 80.0, 128.0], "includesElement__metallic_radius_c12": [180.0, 98.0, 137.0], "includesElement__vdw_radius_batsanov": [240.0, 180.0, 205.0], "includesElement__is_monoisotopic": [true], "includesElement__gas_basicity": [945.9], "includesElement__proton_affinity": [967.0], "includesElement__thermal_conductivity": [27.4, 48.0], "includesElement__c6": [99.5], "includesElement__vdw_radius_dreiding": [402.0], "includesElement__vdw_radius_truhlar": [192.0], "formula": ["B14Re2Y6"], "spacegroup": ["63"], "thermalConductivity": [13.8413], "icsd": ["64595"], "band_gap": [0.0], "density": [6.697902], "density_atomic": [11.91368], "deprecated": [false], "efermi": [5.631583], "energy_above_hull": [0.0], "energy_per_atom": [-15.64771], "formation_energy_per_atom": [-0.6680803], "is_gap_direct": [false], "is_magnetic": [false], "is_metal": [true], "is_stable": [true], "nelements": [3], "nsites": [22], "num_magnetic_sites": [0], "num_unique_magnetic_sites": [0], "theoretical": [false], "total_magnetization": [0.4827382], "total_magnetization_normalized_formula_units": [0.2413691], "total_magnetization_normalized_vol": [0.001841802], "uncorrected_energy_per_atom": [-15.64771], "volume": [262.101], "equilibrium_reaction_energy_per_atom": [-0.02881756]}