{"includesElement": ["", "Cd", "Se", "Yb"], "includesElement___series_id": [8, 1, 9], "includesElement__abundance_crust": [0.15, 0.05, 3.2], "includesElement__atomic_number": [48, 34, 70], "includesElement__atomic_radius": [155.0, 115.0, 175.0], "includesElement__atomic_radius_rahm": [238.0, 224.0, 277.0], "includesElement__atomic_volume": [13.1, 16.5, 24.8], "includesElement__atomic_weight": [112.414, 78.971, 173.045], "includesElement__covalent_radius_cordero": [144.0, 120.0, 187.0], "includesElement__covalent_radius_pyykko": [136.0, 116.0, 170.0], "includesElement__covalent_radius_pyykko_double": [144.0, 107.0, 129.0], "includesElement__density": [8.69, 4.809, 6.9], "includesElement__dipole_polarizability": [46.0, 28.9, 139.0], "includesElement__dipole_polarizability_unc": [2.0, 1.0, 6.0], "includesElement__discovery_year": [1817, 1818, 1878], "includesElement__electronegativity_allred-rochow": [0.000235186, 0.0005164982, 9.861592e-05], "includesElement__electronegativity_cottrell-sutton": [0.1788443, 0.2447729, 0.1294786], "includesElement__electronegativity_ghosh": [0.1504066, 0.2240328, 0.22119], "includesElement__electronegativity_gordy": [0.03198529, 0.05991379, 0.01676471], "includesElement__electronegativity_mulliken": [4.496911, 5.886531, 3.11708], "includesElement__electronegativity_nagle": [0.6389612, 0.592131, 0.4864465], "includesElement__electronegativity_pauling": [1.69, 2.55], "includesElement__electronegativity_sanderson": [0.801562, 0.9659121, 0.5176678], "includesElement__en_ghosh": [0.1504066, 0.2240328, 0.22119], "includesElement__en_pauling": [1.69, 2.55], "includesElement__evaporation_heat": [59.1, 59.7, 159.0], "includesElement__fusion_heat": [6.11, 5.23, 3.35], "includesElement__glawe_number": [75, 95, 18], "includesElement__group_id": [12, 16], "includesElement__heat_of_formation": [111.8, 227.2, 155.6], "includesElement__is_radioactive": [false], "includesElement__lattice_constant": [2.98, 4.36, 5.49], "includesElement__mendeleev_number": [78, 101, 39], "includesElement__molar_heat_capacity": [26.02, 25.363, 26.74], "includesElement__period": [5, 4, 6], "includesElement__pettifor_number": [75, 93, 17], "includesElement__specific_heat_capacity": [0.232, 0.321, 0.155], "includesElement__vdw_radius": [218.0, 190.0, 226.0], "includesElement__vdw_radius_alvarez": [249.0, 182.0, 280.0], "includesElement__vdw_radius_mm3": [250.0, 229.0, 279.0], "includesElement__vdw_radius_uff": [284.8, 420.5, 335.5], "includesElement__abundance_sea": [0.00011, 0.0002, 8.2e-07], "includesElement__atomic_weight_uncertainty": [0.004, 0.008, 0.01], "includesElement__c6_gb": [405.0, 233.0, 1910.0], "includesElement__covalent_radius_bragg": [160.0, 117.0], "includesElement__electronegativity_allen": [8.995, 14.34], "includesElement__en_allen": [8.995, 14.34], "includesElement__metallic_radius": [138.0, 117.0], "includesElement__metallic_radius_c12": [151.0, 140.0], "includesElement__thermal_conductivity": [96.9, 0.52], "includesElement__vdw_radius_batsanov": [220.0, 190.0], "includesElement__covalent_radius_pyykko_triple": [107.0], "includesElement__electron_affinity": [2.02067, -0.02], "includesElement__c6": [210.0], "includesElement__vdw_radius_dreiding": [403.0], "includesElement__vdw_radius_bondi": [190.0], "formula": ["Cd2Se8Yb4"], "spacegroup": ["227"], "thermalConductivity": [0.29051], "icsd": ["37408"], "band_gap": [0.0], "density": [6.151058], "density_atomic": [29.86262], "deprecated": [false], "efermi": [0.1722079], "is_gap_direct": [false], "is_magnetic": [false], "is_metal": [true], "is_stable": [false], "nelements": [3], "nsites": [14], "num_magnetic_sites": [0], "num_unique_magnetic_sites": [0], "theoretical": [false], "total_magnetization": [0.0003015], "total_magnetization_normalized_formula_units": [0.00015075], "total_magnetization_normalized_vol": [7.211596e-07], "volume": [418.0767]}