{"includesElement": ["", "Ir", "C"], "includesElement___series_id": [8, 1], "includesElement__abundance_crust": [0.001, 200.0], "includesElement__atomic_number": [77, 6], "includesElement__atomic_radius": [135.0, 70.0], "includesElement__atomic_radius_rahm": [240.0, 190.0], "includesElement__atomic_volume": [8.54, 5.3], "includesElement__atomic_weight": [192.217, 12.011], "includesElement__covalent_radius_cordero": [141.0, 73.0], "includesElement__covalent_radius_pyykko": [122.0, 75.0], "includesElement__covalent_radius_pyykko_double": [115.0, 67.0], "includesElement__covalent_radius_pyykko_triple": [107.0, 60.0], "includesElement__density": [22.5622, 2.2], "includesElement__dipole_polarizability": [54.0, 11.3], "includesElement__dipole_polarizability_unc": [7.0, 0.2], "includesElement__discovery_year": [1804], "includesElement__electron_affinity": [1.5638, 1.262119], "includesElement__electronegativity_allred-rochow": [0.0002620263, 0.0005777778], "includesElement__electronegativity_cottrell-sutton": [0.1787938, 0.2081666], "includesElement__electronegativity_ghosh": [0.25106, 0.224776], "includesElement__electronegativity_gordy": [0.03196721, 0.04333333], "includesElement__electronegativity_mulliken": [5.26541, 6.261208], "includesElement__electronegativity_nagle": [0.5503212, 0.7073926], "includesElement__electronegativity_pauling": [2.2, 2.55], "includesElement__electronegativity_sanderson": [1.475998, 0.427525], "includesElement__en_ghosh": [0.25106, 0.224776], "includesElement__en_pauling": [2.2, 2.55], "includesElement__evaporation_heat": [604.0], "includesElement__fusion_heat": [27.61], "includesElement__glawe_number": [62, 87], "includesElement__group_id": [9, 14], "includesElement__heat_of_formation": [669.0, 716.87], "includesElement__is_radioactive": [false], "includesElement__lattice_constant": [3.84, 3.57], "includesElement__mendeleev_number": [65, 87], "includesElement__molar_heat_capacity": [25.1, 8.517], "includesElement__period": [6, 2], "includesElement__pettifor_number": [65, 95], "includesElement__specific_heat_capacity": [0.131, 0.709], "includesElement__vdw_radius": [213.0, 170.0], "includesElement__vdw_radius_alvarez": [241.0, 177.0], "includesElement__vdw_radius_mm3": [236.0, 204.0], "includesElement__vdw_radius_uff": [284.0, 385.1], "includesElement__atomic_weight_uncertainty": [0.003], "includesElement__c6_gb": [522.0, 47.9], "includesElement__electronegativity_allen": [9.96, 15.05], "includesElement__en_allen": [9.96, 15.05], "includesElement__metallic_radius": [127.0], "includesElement__metallic_radius_c12": [136.0, 86.0], "includesElement__thermal_conductivity": [147.0, 1.59], "includesElement__vdw_radius_batsanov": [200.0, 170.0], "includesElement__abundance_sea": [28.0], "includesElement__covalent_radius_bragg": [77.0], "includesElement__c6": [46.6], "includesElement__vdw_radius_dreiding": [389.83], "includesElement__vdw_radius_bondi": [170.0], "includesElement__vdw_radius_rt": [177.0], "formula": ["C1Ir1"], "spacegroup": ["216"], "thermalConductivity": [14.6187], "icsd": ["185997"], "band_gap": [0.0], "density": [13.6245], "density_atomic": [12.44552], "deprecated": [false], "efermi": [7.076236], "energy_above_hull": [0.5319193], "energy_per_atom": [-8.50163], "formation_energy_per_atom": [0.5319193], "homogeneous_poisson": [0.378], "is_gap_direct": [false], "is_magnetic": [false], "is_metal": [true], "is_stable": [false], "nelements": [2], "nsites": [2], "num_magnetic_sites": [0], "num_unique_magnetic_sites": [0], "theoretical": [true], "total_magnetization": [0.0017278], "total_magnetization_normalized_formula_units": [0.0017278], "total_magnetization_normalized_vol": [6.941452e-05], "uncorrected_energy_per_atom": [-8.50163], "universal_anisotropy": [0.794], "volume": [24.89104]}