{"includesElement": ["", "Ti", "Br"], "includesElement___series_id": [8, 6], "includesElement__abundance_crust": [5650.0, 2.4], "includesElement__atomic_number": [22, 35], "includesElement__atomic_radius": [140.0, 115.0], "includesElement__atomic_radius_rahm": [257.0, 219.0], "includesElement__atomic_volume": [10.6, 23.5], "includesElement__atomic_weight": [47.867, 79.904], "includesElement__covalent_radius_cordero": [160.0, 120.0], "includesElement__covalent_radius_pyykko": [136.0, 114.0], "includesElement__covalent_radius_pyykko_double": [117.0, 109.0], "includesElement__covalent_radius_pyykko_triple": [108.0, 110.0], "includesElement__density": [4.506, 3.1028], "includesElement__dipole_polarizability": [100.0, 21.0], "includesElement__dipole_polarizability_unc": [10.0, 1.0], "includesElement__discovery_year": [1791, 1826], "includesElement__electron_affinity": [0.079, 3.363588], "includesElement__electronegativity_allred-rochow": [0.0001703071, 0.0005847953], "includesElement__electronegativity_cottrell-sutton": [0.1521899, 0.2581989], "includesElement__electronegativity_ghosh": [0.1233637, 0.2412578], "includesElement__electronegativity_gordy": [0.02316176, 0.06666667], "includesElement__electronegativity_mulliken": [3.45356, 7.588699], "includesElement__electronegativity_nagle": [0.3419952, 0.6933613], "includesElement__electronegativity_pauling": [1.54, 2.96], "includesElement__electronegativity_sanderson": [0.4055462, 1.049026], "includesElement__en_ghosh": [0.1233637, 0.2412578], "includesElement__en_pauling": [1.54, 2.96], "includesElement__evaporation_heat": [422.6, 29.56], "includesElement__fusion_heat": [18.8, 10.57], "includesElement__glawe_number": [51, 100], "includesElement__group_id": [4, 17], "includesElement__heat_of_formation": [473.0, 111.85], "includesElement__is_radioactive": [false], "includesElement__lattice_constant": [2.95, 6.67], "includesElement__mendeleev_number": [43, 108], "includesElement__molar_heat_capacity": [25.06, 75.69], "includesElement__period": [4], "includesElement__pettifor_number": [51, 98], "includesElement__specific_heat_capacity": [0.523, 0.474], "includesElement__vdw_radius": [211.0, 185.0], "includesElement__vdw_radius_alvarez": [246.0, 186.0], "includesElement__vdw_radius_mm3": [239.0, 222.0], "includesElement__vdw_radius_uff": [317.5, 418.9], "includesElement__abundance_sea": [0.001, 67.3], "includesElement__atomic_weight_uncertainty": [0.001], "includesElement__c6_gb": [1200.0, 187.0], "includesElement__covalent_radius_bragg": [140.0, 119.0], "includesElement__electronegativity_allen": [8.17, 15.88], "includesElement__en_allen": [8.17, 15.88], "includesElement__metallic_radius": [132.0], "includesElement__metallic_radius_c12": [147.0, 117.0], "includesElement__thermal_conductivity": [21.9, 0.005], "includesElement__vdw_radius_batsanov": [215.0, 190.0], "includesElement__c6": [1044.0, 162.0], "includesElement__gas_basicity": [853.7, 531.2], "includesElement__proton_affinity": [876.0, 554.4], "includesElement__vdw_radius_dreiding": [395.0], "includesElement__vdw_radius_bondi": [183.0], "includesElement__vdw_radius_rt": [187.0], "formula": ["Br32Ti8"], "spacegroup": ["205"], "thermalConductivity": [0.324447], "icsd": ["39241"], "band_gap": [2.7939], "density": [3.256784], "density_atomic": [37.47377], "deprecated": [false], "efermi": [-2.934289], "energy_above_hull": [0.0], "energy_per_atom": [-14.56345], "formation_energy_per_atom": [-1.454805], "is_gap_direct": [true], "is_magnetic": [false], "is_metal": [false], "is_stable": [true], "nelements": [2], "nsites": [40], "num_magnetic_sites": [0], "num_unique_magnetic_sites": [0], "theoretical": [false], "total_magnetization": [0.0], "total_magnetization_normalized_formula_units": [0.0], "total_magnetization_normalized_vol": [0.0], "uncorrected_energy_per_atom": [-14.56345], "volume": [1498.951], "cbm": [-0.2134], "e_electronic": [2.568472], "e_ionic": [0.2122151], "e_total": [2.780687], "equilibrium_reaction_energy_per_atom": [-0.2353559], "n": [1.602645], "vbm": [-3.0073]}