{"includesElement": ["", "Ga", "N", "Cr"], "includesElement___series_id": [7, 1, 8], "includesElement__abundance_crust": [19.0, 102.0], "includesElement__atomic_number": [31, 7, 24], "includesElement__atomic_radius": [130.0, 65.0, 140.0], "includesElement__atomic_radius_rahm": [233.0, 179.0], "includesElement__atomic_volume": [11.8, 17.3, 7.23], "includesElement__atomic_weight": [69.723, 14.007, 51.9961], "includesElement__covalent_radius_cordero": [122.0, 71.0, 139.0], "includesElement__covalent_radius_pyykko": [124.0, 71.0, 122.0], "includesElement__covalent_radius_pyykko_double": [117.0, 60.0, 111.0], "includesElement__covalent_radius_pyykko_triple": [121.0, 54.0, 103.0], "includesElement__density": [5.91, 0.001145, 7.15], "includesElement__dipole_polarizability": [50.0, 7.4, 83.0], "includesElement__dipole_polarizability_unc": [3.0, 0.2, 12.0], "includesElement__discovery_year": [1875, 1772, 1797], "includesElement__electron_affinity": [0.43, -1.4, 0.666], "includesElement__electronegativity_allred-rochow": [0.0003251821, 0.000773656, 0.0001981994], "includesElement__electronegativity_cottrell-sutton": [0.2008048, 0.2343706, 0.1555003], "includesElement__electronegativity_ghosh": [0.1723773, 0.26493, 0.1313053], "includesElement__electronegativity_gordy": [0.04032258, 0.05492958, 0.02418033], "includesElement__electronegativity_mulliken": [3.214651, 6.567065, 3.716255], "includesElement__electronegativity_nagle": [0.3914868, 0.8774979, 0.4165729], "includesElement__electronegativity_pauling": [1.81, 3.04, 1.66], "includesElement__electronegativity_sanderson": [0.720541, 0.577482, 0.6017723], "includesElement__en_ghosh": [0.1723773, 0.26493, 0.1313053], "includesElement__en_pauling": [1.81, 3.04, 1.66], "includesElement__evaporation_heat": [270.3, 342.0], "includesElement__fusion_heat": [5.59, 21.0], "includesElement__glawe_number": [79, 88, 55], "includesElement__group_id": [13, 15, 6], "includesElement__heat_of_formation": [271.96, 472.44, 397.48], "includesElement__is_radioactive": [false], "includesElement__lattice_constant": [4.51, 4.039, 2.88], "includesElement__mendeleev_number": [83, 93, 51], "includesElement__molar_heat_capacity": [26.03, 29.124, 23.35], "includesElement__period": [4, 2], "includesElement__pettifor_number": [81, 100, 57], "includesElement__specific_heat_capacity": [0.373, 1.04, 0.449], "includesElement__vdw_radius": [187.0, 155.0, 206.0], "includesElement__vdw_radius_alvarez": [232.0, 166.0, 245.0], "includesElement__vdw_radius_mm3": [246.0, 193.0, 225.0], "includesElement__vdw_radius_uff": [438.3, 366.0, 302.3], "includesElement__abundance_sea": [3e-05, 0.5, 0.0003], "includesElement__atomic_weight_uncertainty": [0.001, 0.0006], "includesElement__c6_gb": [456.0, 25.7, 709.0], "includesElement__electronegativity_allen": [10.39, 18.13, 9.77], "includesElement__en_allen": [10.39, 18.13, 9.77], "includesElement__metallic_radius": [125.0, 119.0], "includesElement__metallic_radius_c12": [140.0, 53.0, 128.0], "includesElement__thermal_conductivity": [28.1, 0.026, 93.9], "includesElement__vdw_radius_batsanov": [210.0, 160.0, 205.0], "includesElement__c6": [498.0, 24.2, 602.0], "includesElement__vdw_radius_dreiding": [439.0, 366.21], "includesElement__vdw_radius_bondi": [187.0, 155.0], "includesElement__covalent_radius_bragg": [65.0, 140.0], "includesElement__gas_basicity": [318.7, 768.4], "includesElement__proton_affinity": [342.2, 791.3], "includesElement__vdw_radius_rt": [164.0], "formula": ["Cr4Ga2N2"], "spacegroup": ["194"], "thermalConductivity": [25.5787], "icsd": ["53124"], "band_gap": [0.0], "density": [6.818051], "density_atomic": [11.42994], "deprecated": [false], "efermi": [6.522035], "energy_above_hull": [0.02880396], "energy_per_atom": [-13.05815], "formation_energy_per_atom": [-0.3786012], "homogeneous_poisson": [0.29], "is_gap_direct": [false], "is_magnetic": [true], "is_metal": [true], "is_stable": [false], "nelements": [3], "nsites": [8], "num_magnetic_sites": [4], "num_unique_magnetic_sites": [1], "theoretical": [false], "total_magnetization": [4.009508], "total_magnetization_normalized_formula_units": [2.004754], "total_magnetization_normalized_vol": [0.04384876], "uncorrected_energy_per_atom": [-7.968603], "universal_anisotropy": [0.254], "volume": [91.43948]}