{"includesElement": ["", "N", "Sr", "Cr"], "includesElement___series_id": [1, 4, 8], "includesElement__abundance_crust": [19.0, 370.0, 102.0], "includesElement__atomic_number": [7, 38, 24], "includesElement__atomic_radius": [65.0, 200.0, 140.0], "includesElement__atomic_radius_rahm": [179.0, 279.0, 233.0], "includesElement__atomic_volume": [17.3, 33.7, 7.23], "includesElement__atomic_weight": [14.007, 87.62, 51.9961], "includesElement__covalent_radius_cordero": [71.0, 195.0, 139.0], "includesElement__covalent_radius_pyykko": [71.0, 185.0, 122.0], "includesElement__covalent_radius_pyykko_double": [60.0, 157.0, 111.0], "includesElement__covalent_radius_pyykko_triple": [54.0, 139.0, 103.0], "includesElement__density": [0.001145, 2.64, 7.15], "includesElement__dipole_polarizability": [7.4, 197.2, 83.0], "includesElement__dipole_polarizability_unc": [0.2, 12.0], "includesElement__discovery_year": [1772, 1790, 1797], "includesElement__electron_affinity": [-1.4, 0.048, 0.666], "includesElement__electronegativity_allred-rochow": [0.000773656, 8.327246e-05, 0.0001981994], "includesElement__electronegativity_cottrell-sutton": [0.2343706, 0.1241185, 0.1555003], "includesElement__electronegativity_ghosh": [0.26493, 0.1185082, 0.1313053], "includesElement__electronegativity_gordy": [0.05492958, 0.01540541, 0.02418033], "includesElement__electronegativity_mulliken": [6.567065, 2.871434, 3.716255], "includesElement__electronegativity_nagle": [0.8774979, 0.2164584, 0.4165729], "includesElement__electronegativity_pauling": [3.04, 0.95, 1.66], "includesElement__electronegativity_sanderson": [0.577482, 0.2631786, 0.6017723], "includesElement__en_ghosh": [0.26493, 0.1185082, 0.1313053], "includesElement__en_pauling": [3.04, 0.95, 1.66], "includesElement__glawe_number": [88, 15, 55], "includesElement__group_id": [15, 2, 6], "includesElement__heat_of_formation": [472.44, 164.0, 397.48], "includesElement__is_radioactive": [false], "includesElement__lattice_constant": [4.039, 6.08, 2.88], "includesElement__mendeleev_number": [93, 8, 51], "includesElement__molar_heat_capacity": [29.124, 26.79, 23.35], "includesElement__period": [2, 5, 4], "includesElement__pettifor_number": [100, 15, 57], "includesElement__specific_heat_capacity": [1.04, 0.306, 0.449], "includesElement__vdw_radius": [155.0, 249.0, 206.0], "includesElement__vdw_radius_alvarez": [166.0, 284.0, 245.0], "includesElement__vdw_radius_mm3": [193.0, 300.0, 225.0], "includesElement__vdw_radius_uff": [366.0, 364.1, 302.3], "includesElement__abundance_sea": [0.5, 7.9, 0.0003], "includesElement__c6_gb": [25.7, 3230.0, 709.0], "includesElement__covalent_radius_bragg": [65.0, 195.0, 140.0], "includesElement__electronegativity_allen": [18.13, 5.695, 9.77], "includesElement__en_allen": [18.13, 5.695, 9.77], "includesElement__metallic_radius_c12": [53.0, 215.0, 128.0], "includesElement__thermal_conductivity": [0.026, 93.9], "includesElement__vdw_radius_batsanov": [160.0, 255.0, 205.0], "includesElement__c6": [24.2, 3175.0, 602.0], "includesElement__vdw_radius_dreiding": [366.21], "includesElement__gas_basicity": [318.7, 768.4], "includesElement__proton_affinity": [342.2, 791.3], "includesElement__vdw_radius_bondi": [155.0], "includesElement__vdw_radius_rt": [164.0], "includesElement__evaporation_heat": [144.0, 342.0], "includesElement__fusion_heat": [9.2, 21.0], "includesElement__atomic_weight_uncertainty": [0.01, 0.0006], "includesElement__metallic_radius": [191.0, 119.0], "includesElement__vdw_radius_truhlar": [249.0], "formula": ["Cr2N6Sr6"], "spacegroup": ["176"], "thermalConductivity": [4.60048], "icsd": ["154803"], "band_gap": [0.0], "density": [4.316276], "density_atomic": [19.61369], "deprecated": [false], "efermi": [3.789401], "energy_above_hull": [0.0], "energy_per_atom": [-13.53659], "formation_energy_per_atom": [-0.979941], "homogeneous_poisson": [0.24], "is_gap_direct": [false], "is_magnetic": [false], "is_metal": [true], "is_stable": [true], "nelements": [3], "nsites": [14], "num_magnetic_sites": [0], "num_unique_magnetic_sites": [0], "theoretical": [false], "total_magnetization": [2e-07], "total_magnetization_normalized_formula_units": [1e-07], "total_magnetization_normalized_vol": [7.283541e-10], "uncorrected_energy_per_atom": [-13.53659], "universal_anisotropy": [0.333], "volume": [274.5917], "equilibrium_reaction_energy_per_atom": [-0.05027894]}