{"includesElement": ["", "Zn", "Nb", "C"], "includesElement___series_id": [8, 1], "includesElement__abundance_crust": [70.0, 20.0, 200.0], "includesElement__atomic_number": [30, 41, 6], "includesElement__atomic_radius": [135.0, 145.0, 70.0], "includesElement__atomic_radius_rahm": [222.0, 251.0, 190.0], "includesElement__atomic_volume": [9.2, 10.8, 5.3], "includesElement__atomic_weight": [65.38, 92.90637, 12.011], "includesElement__covalent_radius_cordero": [122.0, 164.0, 73.0], "includesElement__covalent_radius_pyykko": [118.0, 147.0, 75.0], "includesElement__covalent_radius_pyykko_double": [120.0, 125.0, 67.0], "includesElement__density": [7.134, 8.57, 2.2], "includesElement__dipole_polarizability": [38.67, 98.0, 11.3], "includesElement__dipole_polarizability_unc": [0.3, 8.0, 0.2], "includesElement__electronegativity_allred-rochow": [0.0003124102, 0.0001295756, 0.0005777778], "includesElement__electronegativity_cottrell-sutton": [0.1920011, 0.1380131, 0.2081666], "includesElement__electronegativity_ghosh": [0.1551518, 0.1280782, 0.224776], "includesElement__electronegativity_gordy": [0.03686441, 0.01904762, 0.04333333], "includesElement__electronegativity_mulliken": [4.6971, 3.838128, 6.261208], "includesElement__electronegativity_nagle": [0.6770213, 0.3708924, 0.7073926], "includesElement__electronegativity_pauling": [1.65, 1.6, 2.55], "includesElement__electronegativity_sanderson": [0.8100877, 0.5561695, 0.427525], "includesElement__en_ghosh": [0.1551518, 0.1280782, 0.224776], "includesElement__en_pauling": [1.65, 1.6, 2.55], "includesElement__evaporation_heat": [114.8, 680.0], "includesElement__fusion_heat": [7.28, 26.8], "includesElement__glawe_number": [74, 53, 87], "includesElement__group_id": [12, 5, 14], "includesElement__heat_of_formation": [130.4, 733.0, 716.87], "includesElement__is_radioactive": [false], "includesElement__lattice_constant": [2.66, 3.3, 3.57], "includesElement__mendeleev_number": [77, 48, 87], "includesElement__molar_heat_capacity": [25.39, 24.6, 8.517], "includesElement__period": [4, 5, 2], "includesElement__pettifor_number": [76, 52, 95], "includesElement__specific_heat_capacity": [0.388, 0.265, 0.709], "includesElement__vdw_radius": [201.0, 218.0, 170.0], "includesElement__vdw_radius_alvarez": [239.0, 256.0, 177.0], "includesElement__vdw_radius_mm3": [229.0, 243.0, 204.0], "includesElement__vdw_radius_uff": [276.3, 316.5, 385.1], "includesElement__abundance_sea": [0.0049, 1e-05, 28.0], "includesElement__atomic_weight_uncertainty": [0.02, 2e-05], "includesElement__c6_gb": [276.0, 1140.0, 47.9], "includesElement__covalent_radius_bragg": [132.0, 77.0], "includesElement__electronegativity_allen": [9.395, 8.34, 15.05], "includesElement__en_allen": [9.395, 8.34, 15.05], "includesElement__metallic_radius": [121.0, 134.0], "includesElement__metallic_radius_c12": [134.0, 146.0, 86.0], "includesElement__thermal_conductivity": [116.0, 53.7, 1.59], "includesElement__vdw_radius_batsanov": [210.0, 215.0, 170.0], "includesElement__c6": [284.0, 46.6], "includesElement__gas_basicity": [586.0], "includesElement__proton_affinity": [608.6], "includesElement__covalent_radius_pyykko_triple": [116.0, 60.0], "includesElement__discovery_year": [1801], "includesElement__electron_affinity": [0.917406, 1.262119], "includesElement__is_monoisotopic": [true], "includesElement__vdw_radius_dreiding": [389.83], "includesElement__vdw_radius_bondi": [170.0], "includesElement__vdw_radius_rt": [177.0], "formula": ["C4Nb16Zn8"], "spacegroup": ["227"], "thermalConductivity": [4.44282], "icsd": ["42938"], "band_gap": [0.0], "density": [8.009165], "density_atomic": [15.23739], "deprecated": [false], "efermi": [4.872374], "energy_above_hull": [0.07595838], "energy_per_atom": [-7.647018], "formation_energy_per_atom": [-0.1965363], "is_gap_direct": [false], "is_magnetic": [false], "is_metal": [true], "is_stable": [false], "nelements": [3], "nsites": [28], "num_magnetic_sites": [0], "num_unique_magnetic_sites": [0], "theoretical": [false], "total_magnetization": [0.4784585], "total_magnetization_normalized_formula_units": [0.1196146], "total_magnetization_normalized_vol": [0.001121439], "uncorrected_energy_per_atom": [-7.647018], "volume": [426.6469]}