{"includesElement": ["", "Rb", "Te", "Br"], "includesElement___series_id": [3, 5, 6], "includesElement__abundance_crust": [90.0, 0.001, 2.4], "includesElement__atomic_number": [37, 52, 35], "includesElement__atomic_radius": [235.0, 140.0, 115.0], "includesElement__atomic_radius_rahm": [240.0, 242.0, 219.0], "includesElement__atomic_volume": [55.9, 20.5, 23.5], "includesElement__atomic_weight": [85.4678, 127.6, 79.904], "includesElement__covalent_radius_cordero": [220.0, 138.0, 120.0], "includesElement__covalent_radius_pyykko": [210.0, 136.0, 114.0], "includesElement__covalent_radius_pyykko_double": [202.0, 128.0, 109.0], "includesElement__density": [1.53, 6.232, 3.1028], "includesElement__dipole_polarizability": [319.8, 38.0, 21.0], "includesElement__dipole_polarizability_unc": [0.3, 4.0, 1.0], "includesElement__discovery_year": [1861, 1782, 1826], "includesElement__electron_affinity": [0.48592, 1.970876, 3.363588], "includesElement__electronegativity_allred-rochow": [4.988662e-05, 0.0003757569, 0.0005847953], "includesElement__electronegativity_cottrell-sutton": [0.1023533, 0.2260596, 0.2581989], "includesElement__electronegativity_ghosh": [0.104686, 0.2056992, 0.2412578], "includesElement__electronegativity_gordy": [0.01047619, 0.05110294, 0.06666667], "includesElement__electronegativity_mulliken": [2.331524, 5.490268, 7.588699], "includesElement__electronegativity_nagle": [0.1462314, 0.5404919, 0.6933613], "includesElement__electronegativity_pauling": [0.82, 2.1, 2.96], "includesElement__electronegativity_sanderson": [0.1764136, 0.8622506, 1.049026], "includesElement__en_ghosh": [0.104686, 0.2056992, 0.2412578], "includesElement__en_pauling": [0.82, 2.1, 2.96], "includesElement__evaporation_heat": [75.8, 49.8, 29.56], "includesElement__fusion_heat": [2.2, 17.91, 10.57], "includesElement__glawe_number": [9, 94, 100], "includesElement__group_id": [1, 16, 17], "includesElement__heat_of_formation": [80.9, 196.6, 111.85], "includesElement__is_radioactive": [false], "includesElement__lattice_constant": [5.59, 4.45, 6.67], "includesElement__mendeleev_number": [4, 102, 108], "includesElement__molar_heat_capacity": [31.06, 25.73, 75.69], "includesElement__period": [5, 4], "includesElement__pettifor_number": [9, 92, 98], "includesElement__specific_heat_capacity": [0.363, 0.202, 0.474], "includesElement__vdw_radius": [303.0, 206.0, 185.0], "includesElement__vdw_radius_alvarez": [321.0, 199.0, 186.0], "includesElement__vdw_radius_mm3": [325.0, 244.0, 222.0], "includesElement__vdw_radius_uff": [411.4, 447.0, 418.9], "includesElement__abundance_sea": [0.12, 67.3], "includesElement__atomic_weight_uncertainty": [0.0003, 0.03], "includesElement__c6_gb": [4660.0, 471.0, 187.0], "includesElement__covalent_radius_bragg": [225.0, 133.0, 119.0], "includesElement__electronegativity_allen": [4.177, 12.76, 15.88], "includesElement__en_allen": [4.177, 12.76, 15.88], "includesElement__metallic_radius": [216.0, 137.0], "includesElement__metallic_radius_c12": [248.0, 160.0, 117.0], "includesElement__thermal_conductivity": [58.2, 14.3, 0.005], "includesElement__vdw_radius_batsanov": [290.0, 210.0, 190.0], "includesElement__c6": [4769.0, 445.0, 162.0], "includesElement__vdw_radius_truhlar": [303.0], "includesElement__covalent_radius_pyykko_triple": [121.0, 110.0], "includesElement__vdw_radius_dreiding": [423.0, 395.0], "includesElement__vdw_radius_bondi": [206.0, 183.0], "includesElement__gas_basicity": [531.2], "includesElement__proton_affinity": [554.4], "includesElement__vdw_radius_rt": [187.0], "formula": ["Br6Rb2Te1"], "spacegroup": ["225"], "thermalConductivity": [0.574932], "icsd": ["49521"], "band_gap": [2.0509], "density": [4.043664], "density_atomic": [35.49674], "deprecated": [false], "efermi": [-0.1749003], "energy_above_hull": [0.0007570333], "energy_per_atom": [-3.072178], "formation_energy_per_atom": [-1.469673], "homogeneous_poisson": [0.275], "is_gap_direct": [false], "is_magnetic": [false], "is_metal": [false], "is_stable": [false], "nelements": [3], "nsites": [9], "num_magnetic_sites": [0], "num_unique_magnetic_sites": [0], "theoretical": [false], "total_magnetization": [0.0], "total_magnetization_normalized_formula_units": [0.0], "total_magnetization_normalized_vol": [0.0], "uncorrected_energy_per_atom": [-15.94806], "universal_anisotropy": [0.248], "volume": [319.4707], "cbm": [1.7527], "vbm": [-0.2982]}