{"includesElement": ["", "Hg", "Ca"], "includesElement___series_id": [8, 4], "includesElement__abundance_crust": [0.085, 41500.0], "includesElement__atomic_number": [80, 20], "includesElement__atomic_radius": [150.0, 180.0], "includesElement__atomic_radius_rahm": [229.0, 270.0], "includesElement__atomic_volume": [14.8, 29.9], "includesElement__atomic_weight": [200.592, 40.078], "includesElement__covalent_radius_cordero": [132.0, 176.0], "includesElement__covalent_radius_pyykko": [133.0, 171.0], "includesElement__covalent_radius_pyykko_double": [142.0, 147.0], "includesElement__density": [13.5336, 1.54], "includesElement__dipole_polarizability": [33.91, 160.8], "includesElement__dipole_polarizability_unc": [0.34, 4.0], "includesElement__electronegativity_allred-rochow": [0.0002459155, 9.746589e-05], "includesElement__electronegativity_cottrell-sutton": [0.1808501, 0.1290994], "includesElement__electronegativity_ghosh": [0.169, 0.1154119], "includesElement__electronegativity_gordy": [0.03270677, 0.01666667], "includesElement__electronegativity_mulliken": [5.218752, 3.068853], "includesElement__electronegativity_nagle": [0.7073231, 0.2316939], "includesElement__electronegativity_pauling": [1.9, 1.0], "includesElement__electronegativity_sanderson": [1.164789, 0.1901577], "includesElement__en_ghosh": [0.169, 0.1154119], "includesElement__en_pauling": [1.9, 1.0], "includesElement__evaporation_heat": [58.5, 153.6], "includesElement__fusion_heat": [2.295, 9.2], "includesElement__glawe_number": [76, 16], "includesElement__group_id": [12, 2], "includesElement__heat_of_formation": [61.38, 177.8], "includesElement__is_radioactive": [false], "includesElement__lattice_constant": [2.99, 5.58], "includesElement__mendeleev_number": [79, 7], "includesElement__molar_heat_capacity": [27.983, 25.929], "includesElement__period": [6, 4], "includesElement__pettifor_number": [74, 16], "includesElement__specific_heat_capacity": [0.14, 0.647], "includesElement__vdw_radius": [223.0, 231.0], "includesElement__vdw_radius_alvarez": [245.0, 262.0], "includesElement__vdw_radius_mm3": [253.0, 281.0], "includesElement__vdw_radius_uff": [270.5, 339.9], "includesElement__abundance_sea": [3e-05, 412.0], "includesElement__atomic_weight_uncertainty": [0.003, 0.004], "includesElement__c6_gb": [268.0, 2230.0], "includesElement__electronegativity_allen": [10.44, 6.113], "includesElement__en_allen": [10.44, 6.113], "includesElement__metallic_radius": [139.0, 174.0], "includesElement__metallic_radius_c12": [151.0, 197.0], "includesElement__thermal_conductivity": [8.3], "includesElement__vdw_radius_batsanov": [205.0, 240.0], "includesElement__covalent_radius_pyykko_triple": [133.0], "includesElement__discovery_year": [1808], "includesElement__electron_affinity": [0.02455], "includesElement__covalent_radius_bragg": [170.0], "includesElement__c6": [2163.0], "includesElement__vdw_radius_truhlar": [231.0], "formula": ["Ca2Hg6"], "spacegroup": ["194"], "thermalConductivity": [0.23846], "icsd": ["619356"], "band_gap": [0.0], "density": [10.75986], "density_atomic": [24.76364], "deprecated": [false], "efermi": [2.921915], "energy_above_hull": [0.0], "energy_per_atom": [-39.20813], "formation_energy_per_atom": [-0.4226996], "is_gap_direct": [false], "is_magnetic": [false], "is_metal": [true], "is_stable": [true], "nelements": [2], "nsites": [8], "num_magnetic_sites": [0], "num_unique_magnetic_sites": [0], "theoretical": [false], "total_magnetization": [0.0], "total_magnetization_normalized_formula_units": [0.0], "total_magnetization_normalized_vol": [0.0], "uncorrected_energy_per_atom": [-39.20813], "volume": [198.1092], "equilibrium_reaction_energy_per_atom": [-0.03440751]}