{"includesElement": ["", "Al", "Sc", "C"], "includesElement___series_id": [7, 8, 1], "includesElement__abundance_crust": [82300.0, 22.0, 200.0], "includesElement__atomic_number": [13, 21, 6], "includesElement__atomic_radius": [125.0, 160.0, 70.0], "includesElement__atomic_radius_rahm": [239.0, 263.0, 190.0], "includesElement__atomic_volume": [10.0, 15.0, 5.3], "includesElement__atomic_weight": [26.98154, 44.95591, 12.011], "includesElement__covalent_radius_cordero": [121.0, 170.0, 73.0], "includesElement__covalent_radius_pyykko": [126.0, 148.0, 75.0], "includesElement__covalent_radius_pyykko_double": [113.0, 116.0, 67.0], "includesElement__covalent_radius_pyykko_triple": [111.0, 114.0, 60.0], "includesElement__density": [2.7, 2.99, 2.2], "includesElement__dipole_polarizability": [57.8, 97.0, 11.3], "includesElement__dipole_polarizability_unc": [1.0, 10.0, 0.2], "includesElement__discovery_year": [1825, 1879], "includesElement__electron_affinity": [0.43283, 0.188, 1.262119], "includesElement__electronegativity_allred-rochow": [0.0002204586, 0.0001369613, 0.0005777778], "includesElement__electronegativity_cottrell-sutton": [0.1666667, 0.1423737, 0.2081666], "includesElement__electronegativity_ghosh": [0.150078, 0.1193833, 0.224776], "includesElement__electronegativity_gordy": [0.02777778, 0.02027027, 0.04333333], "includesElement__electronegativity_mulliken": [3.209299, 3.374745, 6.261208], "includesElement__electronegativity_nagle": [0.3730192, 0.3138941, 0.7073926], "includesElement__electronegativity_pauling": [1.61, 1.36, 2.55], "includesElement__electronegativity_sanderson": [0.2360927, 0.3038674, 0.427525], "includesElement__en_ghosh": [0.150078, 0.1193833, 0.224776], "includesElement__en_pauling": [1.61, 1.36, 2.55], "includesElement__evaporation_heat": [284.1, 332.7], "includesElement__fusion_heat": [10.75, 15.8], "includesElement__glawe_number": [78, 48, 87], "includesElement__group_id": [13, 3, 14], "includesElement__heat_of_formation": [330.9, 377.8, 716.87], "includesElement__is_radioactive": [false], "includesElement__lattice_constant": [4.05, 3.31, 3.57], "includesElement__mendeleev_number": [82, 11, 87], "includesElement__molar_heat_capacity": [24.2, 25.52, 8.517], "includesElement__period": [3, 4, 2], "includesElement__pettifor_number": [80, 20, 95], "includesElement__specific_heat_capacity": [0.897, 0.568, 0.709], "includesElement__vdw_radius": [184.0, 215.0, 170.0], "includesElement__vdw_radius_alvarez": [225.0, 258.0, 177.0], "includesElement__vdw_radius_mm3": [236.0, 261.0, 204.0], "includesElement__vdw_radius_uff": [449.9, 329.5, 385.1], "includesElement__abundance_sea": [0.002, 6e-07, 28.0], "includesElement__atomic_weight_uncertainty": [7e-07, 5e-06], "includesElement__c6_gb": [520.0, 1570.0, 47.9], "includesElement__covalent_radius_bragg": [135.0, 77.0], "includesElement__electronegativity_allen": [9.539, 7.042, 15.05], "includesElement__en_allen": [9.539, 7.042, 15.05], "includesElement__metallic_radius": [125.0, 144.0], "includesElement__metallic_radius_c12": [143.0, 162.0, 86.0], "includesElement__thermal_conductivity": [237.0, 15.8, 1.59], "includesElement__vdw_radius_batsanov": [210.0, 230.0, 170.0], "includesElement__c6": [528.0, 1383.0, 46.6], "includesElement__is_monoisotopic": [true], "includesElement__vdw_radius_dreiding": [439.0, 389.83], "includesElement__vdw_radius_truhlar": [184.0], "includesElement__gas_basicity": [892.0], "includesElement__proton_affinity": [914.0], "includesElement__vdw_radius_bondi": [170.0], "includesElement__vdw_radius_rt": [177.0], "formula": ["Al6C6Sc2"], "spacegroup": ["186"], "thermalConductivity": [20.3263], "icsd": ["43477"], "band_gap": [0.1033], "density": [3.26864], "density_atomic": [11.75218], "deprecated": [false], "efermi": [7.414245], "energy_above_hull": [0.0004078407], "energy_per_atom": [-6.810721], "formation_energy_per_atom": [-0.3456939], "is_gap_direct": [false], "is_magnetic": [false], "is_metal": [false], "is_stable": [false], "nelements": [3], "nsites": [14], "num_magnetic_sites": [0], "num_unique_magnetic_sites": [0], "theoretical": [false], "total_magnetization": [0.0039109], "total_magnetization_normalized_formula_units": [0.00195545], "total_magnetization_normalized_vol": [2.377006e-05], "uncorrected_energy_per_atom": [-6.810721], "volume": [164.5305], "cbm": [7.4758], "e_electronic": [11.31791], "e_ionic": [47.29001], "e_total": [58.60792], "n": [3.364211], "vbm": [7.3725], "e_ij_max": [2.957661]}