{"includesElement": ["Si", "Zr", "Pt"], "includesElement___series_id": [5, 8], "includesElement__abundance_crust": [282000.0, 165.0, 0.005], "includesElement__atomic_number": [14, 40, 78], "includesElement__atomic_radius": [110.0, 155.0, 135.0], "includesElement__atomic_radius_rahm": [232.0, 269.0, 230.0], "includesElement__atomic_volume": [12.1, 14.1, 9.1], "includesElement__atomic_weight": [28.085, 91.224, 195.084], "includesElement__covalent_radius_cordero": [111.0, 175.0, 136.0], "includesElement__covalent_radius_pyykko": [116.0, 154.0, 123.0], "includesElement__covalent_radius_pyykko_double": [107.0, 127.0, 112.0], "includesElement__covalent_radius_pyykko_triple": [102.0, 121.0, 110.0], "includesElement__density": [2.3296, 6.52, 21.5], "includesElement__dipole_polarizability": [37.3, 112.0, 48.0], "includesElement__dipole_polarizability_unc": [0.7, 13.0, 4.0], "includesElement__discovery_year": [1824, 1789, 1735], "includesElement__electron_affinity": [1.389521, 0.426, 2.128], "includesElement__electronegativity_allred-rochow": [0.0003084126, 0.0001328217, 0.0002346487], "includesElement__electronegativity_cottrell-sutton": [0.1891451, 0.1430194, 0.1698876], "includesElement__electronegativity_ghosh": [0.178503, 0.1248887, 0.25691], "includesElement__electronegativity_gordy": [0.03577586, 0.02045455, 0.02886179], "includesElement__electronegativity_mulliken": [4.770602, 3.52995, 5.543415], "includesElement__electronegativity_nagle": [0.4750986, 0.3293169, 0.5928156], "includesElement__electronegativity_pauling": [1.9, 1.33, 2.2], "includesElement__electronegativity_sanderson": [0.3468158, 0.4744467, 1.45101], "includesElement__en_ghosh": [0.178503, 0.1248887, 0.25691], "includesElement__en_pauling": [1.9, 1.33, 2.2], "includesElement__evaporation_heat": [383.0, 567.0, 470.0], "includesElement__fusion_heat": [50.6, 19.2, 21.76], "includesElement__glawe_number": [85, 49, 64], "includesElement__group_id": [14, 4, 10], "includesElement__heat_of_formation": [450.0, 610.0, 565.7], "includesElement__is_radioactive": [false], "includesElement__lattice_constant": [5.43, 3.23, 3.92], "includesElement__mendeleev_number": [88, 44, 69], "includesElement__molar_heat_capacity": [19.99, 25.36, 25.86], "includesElement__period": [3, 5, 6], "includesElement__pettifor_number": [85, 49, 68], "includesElement__specific_heat_capacity": [0.712, 0.278, 0.133], "includesElement__vdw_radius": [210.0, 223.0, 213.0], "includesElement__vdw_radius_alvarez": [219.0, 252.0, 229.0], "includesElement__vdw_radius_mm3": [229.0, 254.0, 239.0], "includesElement__vdw_radius_uff": [429.5, 312.4, 275.4], "includesElement__abundance_sea": [2.2, 3e-05], "includesElement__c6_gb": [308.0, 1360.0, 470.0], "includesElement__covalent_radius_bragg": [117.0], "includesElement__electronegativity_allen": [11.33, 7.808, 10.16], "includesElement__en_allen": [11.33, 7.808, 10.16], "includesElement__metallic_radius": [117.0, 145.0, 130.0], "includesElement__metallic_radius_c12": [138.0, 160.0, 139.0], "includesElement__thermal_conductivity": [149.0, 22.7, 71.6], "includesElement__vdw_radius_batsanov": [210.0, 230.0, 205.0], "includesElement__c6": [305.0], "includesElement__vdw_radius_dreiding": [427.0], "includesElement__gas_basicity": [814.1], "includesElement__proton_affinity": [837.0], "includesElement__vdw_radius_bondi": [210.0], "includesElement__atomic_weight_uncertainty": [0.002, 0.009], "formula": ["ZrSiPt"], "mp_id": ["961711"], "thermalConductivity": [14.11], "band_gap": [1.0712], "density": [9.010957], "density_atomic": [19.31214], "deprecated": [false], "efermi": [5.739943], "energy_above_hull": [0.1472134], "energy_per_atom": [-28.77131], "formation_energy_per_atom": [-1.100889], "homogeneous_poisson": [0.323], "is_gap_direct": [false], "is_magnetic": [false], "is_metal": [false], "is_stable": [false], "nelements": [3], "nsites": [3], "num_magnetic_sites": [0], "num_unique_magnetic_sites": [0], "theoretical": [true], "total_magnetization": [0.0058234], "total_magnetization_normalized_formula_units": [0.0058234], "total_magnetization_normalized_vol": [0.0001005136], "uncorrected_energy_per_atom": [-7.691811], "universal_anisotropy": [0.202], "volume": [57.93643], "cbm": [6.7662], "e_electronic": [16.45571], "e_ionic": [4.039467], "e_total": [20.49518], "n": [4.056564], "vbm": [5.695], "e_ij_max": [0.9135424]}