{"includesElement": ["", "Pb", "Th"], "includesElement___series_id": [7, 10], "includesElement__abundance_crust": [14.0, 9.6], "includesElement__atomic_number": [82, 90], "includesElement__atomic_radius": [180.0], "includesElement__atomic_radius_rahm": [249.0, 288.0], "includesElement__atomic_volume": [18.3, 19.8], "includesElement__atomic_weight": [207.2, 232.0377], "includesElement__covalent_radius_cordero": [146.0, 206.0], "includesElement__covalent_radius_pyykko": [144.0, 175.0], "includesElement__covalent_radius_pyykko_double": [135.0, 143.0], "includesElement__covalent_radius_pyykko_triple": [137.0, 136.0], "includesElement__density": [11.3, 11.7], "includesElement__dipole_polarizability": [47.0, 217.0], "includesElement__dipole_polarizability_unc": [3.0, 54.0], "includesElement__electron_affinity": [0.3567432], "includesElement__electronegativity_allred-rochow": [0.000272473, 0.0001028571], "includesElement__electronegativity_cottrell-sutton": [0.1980811, 0.1341641], "includesElement__electronegativity_ghosh": [0.177911, 0.10277], "includesElement__electronegativity_gordy": [0.03923611, 0.018], "includesElement__electronegativity_mulliken": [3.886711, 3.15335], "includesElement__electronegativity_nagle": [0.4398663, 0.2641598], "includesElement__electronegativity_pauling": [1.8, 1.3], "includesElement__electronegativity_sanderson": [0.9313226, 0.5557019], "includesElement__en_ghosh": [0.177911, 0.10277], "includesElement__en_pauling": [1.8, 1.3], "includesElement__evaporation_heat": [177.8, 513.7], "includesElement__fusion_heat": [4.77, 16.11], "includesElement__glawe_number": [82, 34], "includesElement__group_id": [14], "includesElement__heat_of_formation": [195.2, 602.0], "includesElement__is_radioactive": [false, true], "includesElement__lattice_constant": [4.95, 5.08], "includesElement__mendeleev_number": [91, 16], "includesElement__molar_heat_capacity": [26.84, 27.32], "includesElement__period": [6, 7], "includesElement__pettifor_number": [82, 47], "includesElement__specific_heat_capacity": [0.13, 0.118], "includesElement__vdw_radius": [202.0, 245.0], "includesElement__vdw_radius_alvarez": [260.0, 293.0], "includesElement__vdw_radius_mm3": [274.0], "includesElement__vdw_radius_uff": [429.7, 339.6], "includesElement__abundance_sea": [3e-05, 1e-06], "includesElement__atomic_weight_uncertainty": [0.1, 0.0004], "includesElement__c6_gb": [534.0], "includesElement__electronegativity_allen": [10.97], "includesElement__en_allen": [10.97], "includesElement__metallic_radius": [150.0], "includesElement__metallic_radius_c12": [170.0], "includesElement__thermal_conductivity": [35.3], "includesElement__vdw_radius_batsanov": [230.0, 240.0], "includesElement__vdw_radius_bondi": [202.0], "includesElement__discovery_year": [1828], "formula": ["Pb3Th1"], "spacegroup": ["221"], "thermalConductivity": [0.338472], "icsd": ["105632"], "band_gap": [0.0], "density": [12.0846], "density_atomic": [29.3245], "deprecated": [false], "efermi": [8.010721], "energy_above_hull": [0.0], "energy_per_atom": [-60.90322], "formation_energy_per_atom": [-0.3205561], "homogeneous_poisson": [0.345], "is_gap_direct": [false], "is_magnetic": [false], "is_metal": [true], "is_stable": [true], "nelements": [2], "nsites": [4], "num_magnetic_sites": [0], "num_unique_magnetic_sites": [0], "theoretical": [false], "total_magnetization": [0.0001453], "total_magnetization_normalized_formula_units": [0.0001453], "total_magnetization_normalized_vol": [1.238725e-06], "uncorrected_energy_per_atom": [-60.90322], "universal_anisotropy": [0.57], "volume": [117.298], "equilibrium_reaction_energy_per_atom": [-0.09518451]}