{"includesElement": ["", "Ti", "Ir"], "includesElement___series_id": [8], "includesElement__abundance_crust": [5650.0, 0.001], "includesElement__atomic_number": [22, 77], "includesElement__atomic_radius": [140.0, 135.0], "includesElement__atomic_radius_rahm": [257.0, 240.0], "includesElement__atomic_volume": [10.6, 8.54], "includesElement__atomic_weight": [47.867, 192.217], "includesElement__covalent_radius_cordero": [160.0, 141.0], "includesElement__covalent_radius_pyykko": [136.0, 122.0], "includesElement__covalent_radius_pyykko_double": [117.0, 115.0], "includesElement__covalent_radius_pyykko_triple": [108.0, 107.0], "includesElement__density": [4.506, 22.5622], "includesElement__dipole_polarizability": [100.0, 54.0], "includesElement__dipole_polarizability_unc": [10.0, 7.0], "includesElement__discovery_year": [1791, 1804], "includesElement__electron_affinity": [0.079, 1.5638], "includesElement__electronegativity_allred-rochow": [0.0001703071, 0.0002620263], "includesElement__electronegativity_cottrell-sutton": [0.1521899, 0.1787938], "includesElement__electronegativity_ghosh": [0.1233637, 0.25106], "includesElement__electronegativity_gordy": [0.02316176, 0.03196721], "includesElement__electronegativity_mulliken": [3.45356, 5.26541], "includesElement__electronegativity_nagle": [0.3419952, 0.5503212], "includesElement__electronegativity_pauling": [1.54, 2.2], "includesElement__electronegativity_sanderson": [0.4055462, 1.475998], "includesElement__en_ghosh": [0.1233637, 0.25106], "includesElement__en_pauling": [1.54, 2.2], "includesElement__evaporation_heat": [422.6, 604.0], "includesElement__fusion_heat": [18.8, 27.61], "includesElement__glawe_number": [51, 62], "includesElement__group_id": [4, 9], "includesElement__heat_of_formation": [473.0, 669.0], "includesElement__is_radioactive": [false], "includesElement__lattice_constant": [2.95, 3.84], "includesElement__mendeleev_number": [43, 65], "includesElement__molar_heat_capacity": [25.06, 25.1], "includesElement__period": [4, 6], "includesElement__pettifor_number": [51, 65], "includesElement__specific_heat_capacity": [0.523, 0.131], "includesElement__vdw_radius": [211.0, 213.0], "includesElement__vdw_radius_alvarez": [246.0, 241.0], "includesElement__vdw_radius_mm3": [239.0, 236.0], "includesElement__vdw_radius_uff": [317.5, 284.0], "includesElement__abundance_sea": [0.001], "includesElement__atomic_weight_uncertainty": [0.001, 0.003], "includesElement__c6_gb": [1200.0, 522.0], "includesElement__covalent_radius_bragg": [140.0], "includesElement__electronegativity_allen": [8.17, 9.96], "includesElement__en_allen": [8.17, 9.96], "includesElement__metallic_radius": [132.0, 127.0], "includesElement__metallic_radius_c12": [147.0, 136.0], "includesElement__thermal_conductivity": [21.9, 147.0], "includesElement__vdw_radius_batsanov": [215.0, 200.0], "includesElement__c6": [1044.0], "includesElement__gas_basicity": [853.7], "includesElement__proton_affinity": [876.0], "formula": ["Ir3Ti1"], "spacegroup": ["221"], "thermalConductivity": [20.7615], "icsd": ["104578"], "band_gap": [0.0], "density": [18.06404], "density_atomic": [14.35222], "deprecated": [false], "efermi": [9.167444], "energy_above_hull": [0.0], "energy_per_atom": [-9.335621], "formation_energy_per_atom": [-0.732922], "homogeneous_poisson": [0.266], "is_gap_direct": [false], "is_magnetic": [false], "is_metal": [true], "is_stable": [true], "nelements": [2], "nsites": [4], "num_magnetic_sites": [0], "num_unique_magnetic_sites": [0], "theoretical": [false], "total_magnetization": [0.0001831], "total_magnetization_normalized_formula_units": [0.0001831], "total_magnetization_normalized_vol": [3.189401e-06], "uncorrected_energy_per_atom": [-43.29542], "universal_anisotropy": [0.905], "volume": [57.40889], "equilibrium_reaction_energy_per_atom": [-0.304112]}