{"includesElement": ["", "Sn", "La", "I"], "includesElement___series_id": [7, 9, 6], "includesElement__abundance_crust": [2.3, 39.0, 0.45], "includesElement__atomic_number": [50, 57, 53], "includesElement__atomic_radius": [145.0, 195.0, 140.0], "includesElement__atomic_radius_rahm": [248.0, 284.0, 238.0], "includesElement__atomic_volume": [16.3, 22.5, 25.7], "includesElement__atomic_weight": [118.71, 138.9055, 126.9045], "includesElement__covalent_radius_cordero": [139.0, 207.0], "includesElement__covalent_radius_pyykko": [140.0, 180.0, 133.0], "includesElement__covalent_radius_pyykko_double": [130.0, 139.0, 129.0], "includesElement__covalent_radius_pyykko_triple": [132.0, 139.0, 125.0], "includesElement__density": [7.287, 6.15, 4.933], "includesElement__dipole_polarizability": [53.0, 215.0, 32.9], "includesElement__dipole_polarizability_unc": [6.0, 20.0, 1.3], "includesElement__electron_affinity": [1.112067, 0.47, 3.059037], "includesElement__electronegativity_allred-rochow": [0.0002882653, 9.259259e-05, 0.0004296455], "includesElement__electronegativity_cottrell-sutton": [0.2008909, 0.1290994, 0.2390457], "includesElement__electronegativity_ghosh": [0.178052, 0.163142, 0.2195176], "includesElement__electronegativity_gordy": [0.04035714, 0.01666667, 0.05714286], "includesElement__electronegativity_mulliken": [4.227992, 3.02345, 6.755148], "includesElement__electronegativity_nagle": [0.4225986, 0.240747, 0.5969904], "includesElement__electronegativity_pauling": [1.96, 1.1, 2.66], "includesElement__electronegativity_sanderson": [0.7622797, 0.3946505, 0.9386429], "includesElement__en_ghosh": [0.178052, 0.163142, 0.2195176], "includesElement__en_pauling": [1.96, 1.1, 2.66], "includesElement__evaporation_heat": [296.0, 402.0, 41.95], "includesElement__fusion_heat": [7.07, 8.5, 15.52], "includesElement__glawe_number": [83, 32, 99], "includesElement__group_id": [14, 3, 17], "includesElement__heat_of_formation": [301.2, 431.0, 106.757], "includesElement__is_radioactive": [false], "includesElement__lattice_constant": [5.82, 3.75, 7.72], "includesElement__mendeleev_number": [90, 13, 109], "includesElement__molar_heat_capacity": [26.99, 27.11, 54.43], "includesElement__period": [5, 6], "includesElement__pettifor_number": [83, 33, 97], "includesElement__specific_heat_capacity": [0.227, 0.195, 0.214], "includesElement__vdw_radius": [217.0, 243.0, 198.0], "includesElement__vdw_radius_alvarez": [242.0, 298.0, 204.0], "includesElement__vdw_radius_mm3": [259.0, 278.0, 236.0], "includesElement__vdw_radius_uff": [439.2, 352.2, 450.0], "includesElement__abundance_sea": [4e-06, 3.4e-06, 0.06], "includesElement__atomic_weight_uncertainty": [0.007, 7e-05, 3e-05], "includesElement__c6_gb": [715.0, 3730.0, 389.0], "includesElement__covalent_radius_bragg": [140.0], "includesElement__electronegativity_allen": [10.79, 13.95], "includesElement__en_allen": [10.79, 13.95], "includesElement__metallic_radius": [142.0, 169.0], "includesElement__metallic_radius_c12": [163.0, 187.0, 139.0], "includesElement__thermal_conductivity": [66.8, 13.4], "includesElement__vdw_radius_batsanov": [225.0, 250.0, 210.0], "includesElement__c6": [659.0, 385.0], "includesElement__vdw_radius_dreiding": [447.0, 415.0], "includesElement__vdw_radius_bondi": [217.0, 198.0], "includesElement__discovery_year": [1839, 1811], "includesElement__gas_basicity": [991.9, 583.5], "includesElement__proton_affinity": [1013.0, 608.2], "includesElement__is_monoisotopic": [true], "includesElement__vdw_radius_rt": [203.0], "formula": ["I2La10Sn6"], "spacegroup": ["193"], "thermalConductivity": [1.59877], "icsd": ["95240"], "band_gap": [0.0], "density": [6.578769], "density_atomic": [33.02522], "deprecated": [false], "efermi": [7.84853], "energy_above_hull": [0.0], "energy_per_atom": [-5.159013], "formation_energy_per_atom": [-0.9165558], "is_gap_direct": [false], "is_magnetic": [true], "is_metal": [true], "is_stable": [true], "nelements": [3], "nsites": [18], "num_magnetic_sites": [4], "num_unique_magnetic_sites": [2], "theoretical": [false], "total_magnetization": [3.997442], "total_magnetization_normalized_formula_units": [1.998721], "total_magnetization_normalized_vol": [0.006724562], "uncorrected_energy_per_atom": [-28.5313], "volume": [594.4539], "equilibrium_reaction_energy_per_atom": [-0.02089381]}