{"includesElement": ["", "F", "S", "La"], "includesElement___series_id": [6, 1, 9], "includesElement__abundance_crust": [585.0, 350.0, 39.0], "includesElement__atomic_number": [9, 16, 57], "includesElement__atomic_radius": [50.0, 100.0, 195.0], "includesElement__atomic_radius_rahm": [163.0, 214.0, 284.0], "includesElement__atomic_volume": [17.1, 15.5, 22.5], "includesElement__atomic_weight": [18.9984, 32.06, 138.9055], "includesElement__covalent_radius_cordero": [57.0, 105.0, 207.0], "includesElement__covalent_radius_pyykko": [64.0, 103.0, 180.0], "includesElement__covalent_radius_pyykko_double": [59.0, 94.0, 139.0], "includesElement__covalent_radius_pyykko_triple": [53.0, 95.0, 139.0], "includesElement__density": [0.001553, 2.07, 6.15], "includesElement__dipole_polarizability": [3.74, 19.4, 215.0], "includesElement__dipole_polarizability_unc": [0.08, 0.1, 20.0], "includesElement__discovery_year": [1886, 1839], "includesElement__electron_affinity": [3.40119, 2.077104, 0.47], "includesElement__electronegativity_allred-rochow": [0.001269531, 0.0005137148, 9.259259e-05], "includesElement__electronegativity_cottrell-sutton": [0.2850439, 0.2300274, 0.1290994], "includesElement__electronegativity_ghosh": [0.344443, 0.23596, 0.163142], "includesElement__electronegativity_gordy": [0.08125, 0.05291262, 0.01666667], "includesElement__electronegativity_mulliken": [10.412, 6.218557, 3.02345], "includesElement__electronegativity_nagle": [1.232373, 0.6762644, 0.240747], "includesElement__electronegativity_pauling": [3.98, 2.58, 1.1], "includesElement__electronegativity_sanderson": [1.017681, 0.6397251, 0.3946505], "includesElement__en_ghosh": [0.344443, 0.23596, 0.163142], "includesElement__en_pauling": [3.98, 2.58, 1.1], "includesElement__evaporation_heat": [6.54, 10.5, 402.0], "includesElement__fusion_heat": [0.51, 1.23, 8.5], "includesElement__glawe_number": [102, 96, 32], "includesElement__group_id": [17, 16, 3], "includesElement__heat_of_formation": [79.335, 277.17, 431.0], "includesElement__is_radioactive": [false], "includesElement__mendeleev_number": [106, 100, 13], "includesElement__molar_heat_capacity": [31.304, 22.7, 27.11], "includesElement__period": [2, 3, 6], "includesElement__pettifor_number": [102, 94, 33], "includesElement__specific_heat_capacity": [0.824, 0.708, 0.195], "includesElement__vdw_radius": [147.0, 180.0, 243.0], "includesElement__vdw_radius_alvarez": [146.0, 189.0, 298.0], "includesElement__vdw_radius_mm3": [171.0, 215.0, 278.0], "includesElement__vdw_radius_uff": [336.4, 403.5, 352.2], "includesElement__abundance_sea": [1.3, 905.0, 3.4e-06], "includesElement__atomic_weight_uncertainty": [6e-09, 7e-05], "includesElement__c6_gb": [10.2, 140.0, 3730.0], "includesElement__covalent_radius_bragg": [67.0, 102.0], "includesElement__electronegativity_allen": [24.8, 15.31], "includesElement__en_allen": [24.8, 15.31], "includesElement__thermal_conductivity": [0.028, 0.27, 13.4], "includesElement__vdw_radius_batsanov": [150.0, 180.0, 250.0], "includesElement__c6": [9.52, 134.0], "includesElement__is_monoisotopic": [true], "includesElement__vdw_radius_dreiding": [347.2, 403.0], "includesElement__gas_basicity": [315.1, 640.2, 991.9], "includesElement__proton_affinity": [340.1, 664.3, 1013.0], "includesElement__vdw_radius_bondi": [147.0, 180.0], "includesElement__vdw_radius_rt": [146.0, 181.0], "includesElement__lattice_constant": [10.47, 3.75], "includesElement__metallic_radius": [104.0, 169.0], "includesElement__metallic_radius_c12": [127.0, 187.0], "formula": ["F2La2S2"], "spacegroup": ["129"], "thermalConductivity": [4.93591], "icsd": ["93350"], "band_gap": [1.4881], "density": [5.527825], "density_atomic": [19.02199], "deprecated": [false], "efermi": [6.295307], "energy_above_hull": [0.0], "energy_per_atom": [-17.08788], "formation_energy_per_atom": [-3.4534], "homogeneous_poisson": [0.297], "is_gap_direct": [true], "is_magnetic": [false], "is_metal": [false], "is_stable": [true], "nelements": [3], "nsites": [6], "num_magnetic_sites": [0], "num_unique_magnetic_sites": [0], "theoretical": [false], "total_magnetization": [0.0], "total_magnetization_normalized_formula_units": [0.0], "total_magnetization_normalized_vol": [0.0], "uncorrected_energy_per_atom": [-17.08788], "universal_anisotropy": [0.091], "volume": [114.132], "cbm": [7.6488], "e_electronic": [5.552463], "e_ionic": [13.2657], "e_total": [18.81816], "equilibrium_reaction_energy_per_atom": [-0.05575165], "n": [2.356366], "vbm": [6.1607]}