{"includesElement": ["", "H", "Ac"], "includesElement___series_id": [1, 10], "includesElement__abundance_crust": [1400.0, 5.5e-10], "includesElement__atomic_number": [1, 89], "includesElement__atomic_radius": [25.0, 195.0], "includesElement__atomic_radius_rahm": [154.0, 293.0], "includesElement__atomic_volume": [14.1, 22.54], "includesElement__atomic_weight": [1.008, 227.0], "includesElement__covalent_radius_cordero": [31.0, 215.0], "includesElement__covalent_radius_pyykko": [32.0, 186.0], "includesElement__density": [8.2e-05, 10.0], "includesElement__dipole_polarizability": [4.50711, 203.0], "includesElement__dipole_polarizability_unc": [3e-05, 12.0], "includesElement__discovery_year": [1766, 1899], "includesElement__electron_affinity": [0.754195, 0.35], "includesElement__electronegativity_allred-rochow": [0.0009765625, 8.671523e-05], "includesElement__electronegativity_cottrell-sutton": [0.1767767, 0.1270001], "includesElement__electronegativity_ghosh": [0.2638, 0.10033], "includesElement__electronegativity_gordy": [0.03125, 0.01612903], "includesElement__electronegativity_mulliken": [7.176315, 2.865113], "includesElement__electronegativity_nagle": [0.6053882, 0.2454003], "includesElement__electronegativity_pauling": [2.2, 1.1], "includesElement__electronegativity_sanderson": [2.187771, 0.4583164], "includesElement__en_ghosh": [0.2638, 0.10033], "includesElement__en_pauling": [2.2, 1.1], "includesElement__evaporation_heat": [0.904, 292.9], "includesElement__fusion_heat": [0.117, 10.5], "includesElement__glawe_number": [103, 33], "includesElement__group_id": [1, 3], "includesElement__heat_of_formation": [217.998, 406.0], "includesElement__is_radioactive": [false, true], "includesElement__lattice_constant": [3.75, 5.31], "includesElement__mendeleev_number": [105, 14], "includesElement__molar_heat_capacity": [28.836, 27.2], "includesElement__period": [1, 7], "includesElement__pettifor_number": [103, 48], "includesElement__specific_heat_capacity": [14.304, 0.12], "includesElement__vdw_radius": [110.0, 247.0], "includesElement__vdw_radius_alvarez": [120.0, 280.0], "includesElement__vdw_radius_mm3": [162.0, 308.0], "includesElement__vdw_radius_uff": [288.6, 347.8], "includesElement__abundance_sea": [108000.0], "includesElement__c6_gb": [6.51], "includesElement__electronegativity_allen": [13.61], "includesElement__en_allen": [13.61], "includesElement__metallic_radius_c12": [78.0], "includesElement__thermal_conductivity": [0.1815], "includesElement__c6": [6.499027], "includesElement__vdw_radius_dreiding": [319.5], "includesElement__vdw_radius_bondi": [120.0], "includesElement__vdw_radius_rt": [110.0], "includesElement__covalent_radius_pyykko_double": [153.0], "includesElement__covalent_radius_pyykko_triple": [140.0], "formula": ["Ac1H2"], "spacegroup": ["225"], "thermalConductivity": [6.30193], "icsd": ["56392"], "band_gap": [0.0], "density": [7.345136], "density_atomic": [17.25813], "deprecated": [false], "efermi": [5.40432], "energy_above_hull": [0.0], "energy_per_atom": [-25.8669], "formation_energy_per_atom": [-0.6843336], "homogeneous_poisson": [0.259], "is_gap_direct": [false], "is_magnetic": [false], "is_metal": [true], "is_stable": [true], "nelements": [2], "nsites": [3], "num_magnetic_sites": [0], "num_unique_magnetic_sites": [0], "theoretical": [false], "total_magnetization": [1.45e-05], "total_magnetization_normalized_formula_units": [1.45e-05], "total_magnetization_normalized_vol": [2.800613e-07], "uncorrected_energy_per_atom": [-25.8669], "universal_anisotropy": [0.835], "volume": [51.77438], "equilibrium_reaction_energy_per_atom": [-0.08717624]}