{"includesElement": ["", "O", "Zr", "Pd"], "includesElement___series_id": [1, 8], "includesElement__abundance_crust": [461000.0, 165.0, 0.015], "includesElement__atomic_number": [8, 40, 46], "includesElement__atomic_radius": [60.0, 155.0, 140.0], "includesElement__atomic_radius_rahm": [171.0, 269.0, 215.0], "includesElement__atomic_volume": [14.0, 14.1, 8.9], "includesElement__atomic_weight": [15.999, 91.224, 106.42], "includesElement__covalent_radius_cordero": [66.0, 175.0, 139.0], "includesElement__covalent_radius_pyykko": [63.0, 154.0, 120.0], "includesElement__covalent_radius_pyykko_double": [57.0, 127.0, 117.0], "includesElement__covalent_radius_pyykko_triple": [53.0, 121.0, 112.0], "includesElement__density": [0.001308, 6.52, 12.0], "includesElement__dipole_polarizability": [5.3, 112.0, 26.14], "includesElement__dipole_polarizability_unc": [0.2, 13.0, 0.1], "includesElement__discovery_year": [1774, 1789, 1803], "includesElement__electron_affinity": [1.461113, 0.426, 0.562], "includesElement__electronegativity_allred-rochow": [0.001146384, 0.0001328217, 0.0004756944], "includesElement__electronegativity_cottrell-sutton": [0.2687419, 0.1430194, 0.2389212], "includesElement__electronegativity_ghosh": [0.304575, 0.1248887, 0.1440276], "includesElement__electronegativity_gordy": [0.07222222, 0.02045455, 0.05708333], "includesElement__electronegativity_mulliken": [7.539584, 3.52995, 4.44943], "includesElement__electronegativity_nagle": [1.042218, 0.3293169, 0.7259357], "includesElement__electronegativity_pauling": [3.44, 1.33, 2.2], "includesElement__electronegativity_sanderson": [0.9416494, 0.4744467, 1.124263], "includesElement__en_ghosh": [0.304575, 0.1248887, 0.1440276], "includesElement__en_pauling": [3.44, 1.33, 2.2], "includesElement__glawe_number": [97, 49, 65], "includesElement__group_id": [16, 4, 10], "includesElement__heat_of_formation": [249.229, 610.0, 376.6], "includesElement__is_radioactive": [false], "includesElement__lattice_constant": [6.83, 3.23, 3.89], "includesElement__mendeleev_number": [99, 44, 68], "includesElement__molar_heat_capacity": [29.378, 25.36, 25.98], "includesElement__period": [2, 5], "includesElement__pettifor_number": [101, 49, 69], "includesElement__specific_heat_capacity": [0.918, 0.278, 0.246], "includesElement__vdw_radius": [152.0, 223.0, 210.0], "includesElement__vdw_radius_alvarez": [150.0, 252.0, 215.0], "includesElement__vdw_radius_mm3": [182.0, 254.0, 237.0], "includesElement__vdw_radius_uff": [350.0, 312.4, 289.9], "includesElement__abundance_sea": [857000.0, 3e-05], "includesElement__c6_gb": [16.7, 1360.0, 628.0], "includesElement__covalent_radius_bragg": [65.0], "includesElement__electronegativity_allen": [21.36, 7.808, 9.402], "includesElement__en_allen": [21.36, 7.808, 9.402], "includesElement__thermal_conductivity": [0.027, 22.7, 71.8], "includesElement__vdw_radius_batsanov": [155.0, 230.0, 205.0], "includesElement__c6": [15.6], "includesElement__vdw_radius_dreiding": [340.46], "includesElement__gas_basicity": [459.6, 673.4], "includesElement__proton_affinity": [485.2, 696.0], "includesElement__vdw_radius_bondi": [152.0], "includesElement__vdw_radius_rt": [158.0], "includesElement__evaporation_heat": [567.0, 372.4], "includesElement__fusion_heat": [19.2, 17.24], "includesElement__atomic_weight_uncertainty": [0.002, 0.01], "includesElement__metallic_radius": [145.0, 128.0], "includesElement__metallic_radius_c12": [160.0, 137.0], "formula": ["O4Pd8Zr16"], "spacegroup": ["227"], "thermalConductivity": [0.700895], "icsd": ["97386"], "band_gap": [0.0], "density": [8.060305], "density_atomic": [17.47401], "deprecated": [false], "efermi": [5.335013], "energy_above_hull": [0.0], "energy_per_atom": [-21.67785], "formation_energy_per_atom": [-1.266321], "is_gap_direct": [false], "is_magnetic": [false], "is_metal": [true], "is_stable": [true], "nelements": [3], "nsites": [28], "num_magnetic_sites": [0], "num_unique_magnetic_sites": [0], "theoretical": [false], "total_magnetization": [2.837988], "total_magnetization_normalized_formula_units": [0.709497], "total_magnetization_normalized_vol": [0.005800428], "uncorrected_energy_per_atom": [-21.67785], "volume": [489.2722], "equilibrium_reaction_energy_per_atom": [-0.01578725]}