{"includesElement": ["", "Si", "O", "La"], "includesElement___series_id": [5, 1, 9], "includesElement__abundance_crust": [282000.0, 461000.0, 39.0], "includesElement__atomic_number": [14, 8, 57], "includesElement__atomic_radius": [110.0, 60.0, 195.0], "includesElement__atomic_radius_rahm": [232.0, 171.0, 284.0], "includesElement__atomic_volume": [12.1, 14.0, 22.5], "includesElement__atomic_weight": [28.085, 15.999, 138.9055], "includesElement__covalent_radius_cordero": [111.0, 66.0, 207.0], "includesElement__covalent_radius_pyykko": [116.0, 63.0, 180.0], "includesElement__covalent_radius_pyykko_double": [107.0, 57.0, 139.0], "includesElement__covalent_radius_pyykko_triple": [102.0, 53.0, 139.0], "includesElement__density": [2.3296, 0.001308, 6.15], "includesElement__dipole_polarizability": [37.3, 5.3, 215.0], "includesElement__dipole_polarizability_unc": [0.7, 0.2, 20.0], "includesElement__discovery_year": [1824, 1774, 1839], "includesElement__electron_affinity": [1.389521, 1.461113, 0.47], "includesElement__electronegativity_allred-rochow": [0.0003084126, 0.001146384, 9.259259e-05], "includesElement__electronegativity_cottrell-sutton": [0.1891451, 0.2687419, 0.1290994], "includesElement__electronegativity_ghosh": [0.178503, 0.304575, 0.163142], "includesElement__electronegativity_gordy": [0.03577586, 0.07222222, 0.01666667], "includesElement__electronegativity_mulliken": [4.770602, 7.539584, 3.02345], "includesElement__electronegativity_nagle": [0.4750986, 1.042218, 0.240747], "includesElement__electronegativity_pauling": [1.9, 3.44, 1.1], "includesElement__electronegativity_sanderson": [0.3468158, 0.9416494, 0.3946505], "includesElement__en_ghosh": [0.178503, 0.304575, 0.163142], "includesElement__en_pauling": [1.9, 3.44, 1.1], "includesElement__evaporation_heat": [383.0, 402.0], "includesElement__fusion_heat": [50.6, 8.5], "includesElement__glawe_number": [85, 97, 32], "includesElement__group_id": [14, 16, 3], "includesElement__heat_of_formation": [450.0, 249.229, 431.0], "includesElement__is_radioactive": [false], "includesElement__lattice_constant": [5.43, 6.83, 3.75], "includesElement__mendeleev_number": [88, 99, 13], "includesElement__molar_heat_capacity": [19.99, 29.378, 27.11], "includesElement__period": [3, 2, 6], "includesElement__pettifor_number": [85, 101, 33], "includesElement__specific_heat_capacity": [0.712, 0.918, 0.195], "includesElement__vdw_radius": [210.0, 152.0, 243.0], "includesElement__vdw_radius_alvarez": [219.0, 150.0, 298.0], "includesElement__vdw_radius_mm3": [229.0, 182.0, 278.0], "includesElement__vdw_radius_uff": [429.5, 350.0, 352.2], "includesElement__abundance_sea": [2.2, 857000.0, 3.4e-06], "includesElement__c6_gb": [308.0, 16.7, 3730.0], "includesElement__covalent_radius_bragg": [117.0, 65.0], "includesElement__electronegativity_allen": [11.33, 21.36], "includesElement__en_allen": [11.33, 21.36], "includesElement__metallic_radius": [117.0, 169.0], "includesElement__metallic_radius_c12": [138.0, 187.0], "includesElement__thermal_conductivity": [149.0, 0.027, 13.4], "includesElement__vdw_radius_batsanov": [210.0, 155.0, 250.0], "includesElement__c6": [305.0, 15.6], "includesElement__vdw_radius_dreiding": [427.0, 340.46], "includesElement__gas_basicity": [814.1, 459.6, 991.9], "includesElement__proton_affinity": [837.0, 485.2, 1013.0], "includesElement__vdw_radius_bondi": [210.0, 152.0], "includesElement__vdw_radius_rt": [158.0], "includesElement__atomic_weight_uncertainty": [7e-05], "formula": ["La10O3Si8"], "spacegroup": ["191"], "thermalConductivity": [3.21651], "icsd": ["173575"], "band_gap": [0.0], "density": [5.656259], "density_atomic": [23.23073], "deprecated": [false], "efermi": [8.517681], "energy_above_hull": [0.03057072], "energy_per_atom": [-19.8386], "formation_energy_per_atom": [-1.480506], "is_gap_direct": [false], "is_magnetic": [false], "is_metal": [true], "is_stable": [false], "nelements": [3], "nsites": [21], "num_magnetic_sites": [0], "num_unique_magnetic_sites": [0], "theoretical": [false], "total_magnetization": [0.0079898], "total_magnetization_normalized_formula_units": [0.0079898], "total_magnetization_normalized_vol": [1.637773e-05], "uncorrected_energy_per_atom": [-6.489871], "volume": [487.8453]}