{"includesElement": ["", "Al", "La", "C"], "includesElement___series_id": [7, 9, 1], "includesElement__abundance_crust": [82300.0, 39.0, 200.0], "includesElement__atomic_number": [13, 57, 6], "includesElement__atomic_radius": [125.0, 195.0, 70.0], "includesElement__atomic_radius_rahm": [239.0, 284.0, 190.0], "includesElement__atomic_volume": [10.0, 22.5, 5.3], "includesElement__atomic_weight": [26.98154, 138.9055, 12.011], "includesElement__covalent_radius_cordero": [121.0, 207.0, 73.0], "includesElement__covalent_radius_pyykko": [126.0, 180.0, 75.0], "includesElement__covalent_radius_pyykko_double": [113.0, 139.0, 67.0], "includesElement__covalent_radius_pyykko_triple": [111.0, 139.0, 60.0], "includesElement__density": [2.7, 6.15, 2.2], "includesElement__dipole_polarizability": [57.8, 215.0, 11.3], "includesElement__dipole_polarizability_unc": [1.0, 20.0, 0.2], "includesElement__discovery_year": [1825, 1839], "includesElement__electron_affinity": [0.43283, 0.47, 1.262119], "includesElement__electronegativity_allred-rochow": [0.0002204586, 9.259259e-05, 0.0005777778], "includesElement__electronegativity_cottrell-sutton": [0.1666667, 0.1290994, 0.2081666], "includesElement__electronegativity_ghosh": [0.150078, 0.163142, 0.224776], "includesElement__electronegativity_gordy": [0.02777778, 0.01666667, 0.04333333], "includesElement__electronegativity_mulliken": [3.209299, 3.02345, 6.261208], "includesElement__electronegativity_nagle": [0.3730192, 0.240747, 0.7073926], "includesElement__electronegativity_pauling": [1.61, 1.1, 2.55], "includesElement__electronegativity_sanderson": [0.2360927, 0.3946505, 0.427525], "includesElement__en_ghosh": [0.150078, 0.163142, 0.224776], "includesElement__en_pauling": [1.61, 1.1, 2.55], "includesElement__evaporation_heat": [284.1, 402.0], "includesElement__fusion_heat": [10.75, 8.5], "includesElement__glawe_number": [78, 32, 87], "includesElement__group_id": [13, 3, 14], "includesElement__heat_of_formation": [330.9, 431.0, 716.87], "includesElement__is_radioactive": [false], "includesElement__lattice_constant": [4.05, 3.75, 3.57], "includesElement__mendeleev_number": [82, 13, 87], "includesElement__molar_heat_capacity": [24.2, 27.11, 8.517], "includesElement__period": [3, 6, 2], "includesElement__pettifor_number": [80, 33, 95], "includesElement__specific_heat_capacity": [0.897, 0.195, 0.709], "includesElement__vdw_radius": [184.0, 243.0, 170.0], "includesElement__vdw_radius_alvarez": [225.0, 298.0, 177.0], "includesElement__vdw_radius_mm3": [236.0, 278.0, 204.0], "includesElement__vdw_radius_uff": [449.9, 352.2, 385.1], "includesElement__abundance_sea": [0.002, 3.4e-06, 28.0], "includesElement__atomic_weight_uncertainty": [7e-07, 7e-05], "includesElement__c6_gb": [520.0, 3730.0, 47.9], "includesElement__covalent_radius_bragg": [135.0, 77.0], "includesElement__electronegativity_allen": [9.539, 15.05], "includesElement__en_allen": [9.539, 15.05], "includesElement__metallic_radius": [125.0, 169.0], "includesElement__metallic_radius_c12": [143.0, 187.0, 86.0], "includesElement__thermal_conductivity": [237.0, 13.4, 1.59], "includesElement__vdw_radius_batsanov": [210.0, 250.0, 170.0], "includesElement__c6": [528.0, 46.6], "includesElement__is_monoisotopic": [true], "includesElement__vdw_radius_dreiding": [439.0, 389.83], "includesElement__vdw_radius_truhlar": [184.0], "includesElement__gas_basicity": [991.9], "includesElement__proton_affinity": [1013.0], "includesElement__vdw_radius_bondi": [170.0], "includesElement__vdw_radius_rt": [177.0], "formula": ["Al1C1La3"], "spacegroup": ["221"], "thermalConductivity": [6.61794], "icsd": ["185958"], "band_gap": [0.0], "density": [5.365885], "density_atomic": [28.20493], "deprecated": [false], "efermi": [6.952417], "energy_above_hull": [0.03453017], "energy_per_atom": [-5.741742], "formation_energy_per_atom": [-0.1852894], "homogeneous_poisson": [0.255], "is_gap_direct": [false], "is_magnetic": [false], "is_metal": [true], "is_stable": [false], "nelements": [3], "nsites": [5], "num_magnetic_sites": [0], "num_unique_magnetic_sites": [0], "theoretical": [false], "total_magnetization": [0.0001904], "total_magnetization_normalized_formula_units": [0.0001904], "total_magnetization_normalized_vol": [1.350119e-06], "uncorrected_energy_per_atom": [-5.741742], "universal_anisotropy": [0.017], "volume": [141.0246]}