{"includesElement": ["", "Bi", "Pt", "Ho"], "includesElement___series_id": [7, 8, 9], "includesElement__abundance_crust": [0.0085, 0.005, 1.3], "includesElement__atomic_number": [83, 78, 67], "includesElement__atomic_radius": [160.0, 135.0, 175.0], "includesElement__atomic_radius_rahm": [250.0, 230.0, 273.0], "includesElement__atomic_volume": [21.3, 9.1, 18.7], "includesElement__atomic_weight": [208.9804, 195.084, 164.9303], "includesElement__covalent_radius_cordero": [148.0, 136.0, 192.0], "includesElement__covalent_radius_pyykko": [151.0, 123.0, 166.0], "includesElement__covalent_radius_pyykko_double": [141.0, 112.0, 133.0], "includesElement__covalent_radius_pyykko_triple": [135.0, 110.0], "includesElement__density": [9.79, 21.5, 8.8], "includesElement__dipole_polarizability": [48.0, 156.0], "includesElement__dipole_polarizability_unc": [4.0, 10.0], "includesElement__electron_affinity": [0.942362, 2.128], "includesElement__electronegativity_allred-rochow": [0.0002763037, 0.0002346487, 0.0001034258], "includesElement__electronegativity_cottrell-sutton": [0.2042593, 0.1698876, 0.1310293], "includesElement__electronegativity_ghosh": [0.182377, 0.25691, 0.207795], "includesElement__electronegativity_gordy": [0.04172185, 0.02886179, 0.01716867], "includesElement__electronegativity_mulliken": [4.113939, 5.543415, 3.01075], "includesElement__electronegativity_nagle": [0.470518, 0.5928156, 0.4367902], "includesElement__electronegativity_pauling": [1.9, 2.2, 1.23], "includesElement__electronegativity_sanderson": [0.8136501, 1.45101, 0.5434919], "includesElement__en_ghosh": [0.182377, 0.25691, 0.207795], "includesElement__en_pauling": [1.9, 2.2, 1.23], "includesElement__evaporation_heat": [172.0, 470.0, 301.0], "includesElement__fusion_heat": [11.0, 21.76], "includesElement__glawe_number": [92, 64, 23], "includesElement__group_id": [15, 10], "includesElement__heat_of_formation": [209.6, 565.7, 300.6], "includesElement__is_radioactive": [false], "includesElement__lattice_constant": [4.75, 3.92, 3.58], "includesElement__mendeleev_number": [97, 69, 33], "includesElement__molar_heat_capacity": [25.52, 25.86, 27.15], "includesElement__period": [6], "includesElement__pettifor_number": [87, 68, 24], "includesElement__specific_heat_capacity": [0.122, 0.133, 0.165], "includesElement__vdw_radius": [207.0, 213.0, 230.0], "includesElement__vdw_radius_alvarez": [254.0, 229.0, 281.0], "includesElement__vdw_radius_mm3": [266.0, 239.0, 267.0], "includesElement__vdw_radius_uff": [437.0, 275.4, 340.9], "includesElement__abundance_sea": [2e-05, 2.2e-07], "includesElement__atomic_weight_uncertainty": [1e-05, 0.009, 2e-05], "includesElement__c6_gb": [513.0, 470.0, 2280.0], "includesElement__covalent_radius_bragg": [148.0], "includesElement__electronegativity_allen": [11.9, 10.16], "includesElement__en_allen": [11.9, 10.16], "includesElement__metallic_radius": [151.0, 130.0], "includesElement__metallic_radius_c12": [178.0, 139.0], "includesElement__thermal_conductivity": [7.9, 71.6], "includesElement__vdw_radius_batsanov": [230.0, 205.0], "includesElement__is_monoisotopic": [true], "includesElement__vdw_radius_truhlar": [207.0], "includesElement__discovery_year": [1735, 1878], "formula": ["Bi1Ho1Pt1", "HoBiPt"], "mp_id": ["30455"], "spacegroup": ["216"], "thermalConductivity": [4.30266, 6.46], "icsd": ["58788"], "band_gap": [0.0], "density": [12.71285], "density_atomic": [24.77383], "deprecated": [false], "efermi": [5.721294], "energy_above_hull": [0.0], "energy_per_atom": [-5.877375], "formation_energy_per_atom": [-1.040941], "homogeneous_poisson": [0.305], "is_gap_direct": [false], "is_magnetic": [false], "is_metal": [true], "is_stable": [true], "nelements": [3], "nsites": [3], "num_magnetic_sites": [0], "num_unique_magnetic_sites": [0], "theoretical": [false], "total_magnetization": [4e-07], "total_magnetization_normalized_formula_units": [4e-07], "total_magnetization_normalized_vol": [5.382024e-09], "uncorrected_energy_per_atom": [-48.79978], "universal_anisotropy": [0.001], "volume": [74.32148], "equilibrium_reaction_energy_per_atom": [-0.1800258]}