{"includesElement": ["", "As", "Sr", "Ru"], "includesElement___series_id": [5, 4, 8], "includesElement__abundance_crust": [1.8, 370.0, 0.001], "includesElement__atomic_number": [33, 38, 44], "includesElement__atomic_radius": [115.0, 200.0, 130.0], "includesElement__atomic_radius_rahm": [231.0, 279.0, 237.0], "includesElement__atomic_volume": [13.1, 33.7, 8.3], "includesElement__atomic_weight": [74.92159, 87.62, 101.07], "includesElement__covalent_radius_cordero": [119.0, 195.0, 146.0], "includesElement__covalent_radius_pyykko": [121.0, 185.0, 125.0], "includesElement__covalent_radius_pyykko_double": [114.0, 157.0], "includesElement__covalent_radius_pyykko_triple": [106.0, 139.0, 103.0], "includesElement__density": [5.75, 2.64, 12.1], "includesElement__dipole_polarizability": [30.0, 197.2, 72.0], "includesElement__dipole_polarizability_unc": [1.0, 0.2, 10.0], "includesElement__electron_affinity": [0.804, 0.048, 1.05], "includesElement__electronegativity_allred-rochow": [0.0004302985, 8.327246e-05, 0.000208], "includesElement__electronegativity_cottrell-sutton": [0.22818, 0.1241185, 0.1612452], "includesElement__electronegativity_ghosh": [0.2068208, 0.1185082, 0.1376494], "includesElement__electronegativity_gordy": [0.05206612, 0.01540541, 0.026], "includesElement__electronegativity_mulliken": [5.2965, 2.871434, 4.20525], "includesElement__electronegativity_nagle": [0.5503212, 0.2164584, 0.4807499], "includesElement__electronegativity_pauling": [2.18, 0.95, 2.2], "includesElement__electronegativity_sanderson": [0.8253373, 0.2631786, 0.9579373], "includesElement__en_ghosh": [0.2068208, 0.1185082, 0.1376494], "includesElement__en_pauling": [2.18, 0.95, 2.2], "includesElement__evaporation_heat": [32.4, 144.0], "includesElement__glawe_number": [90, 15, 61], "includesElement__group_id": [15, 2, 8], "includesElement__heat_of_formation": [302.5, 164.0, 650.6], "includesElement__is_radioactive": [false], "includesElement__lattice_constant": [4.13, 6.08, 2.7], "includesElement__mendeleev_number": [95, 8, 60], "includesElement__molar_heat_capacity": [24.64, 26.79, 24.06], "includesElement__period": [4, 5], "includesElement__pettifor_number": [89, 15, 63], "includesElement__specific_heat_capacity": [0.329, 0.306, 0.238], "includesElement__vdw_radius": [185.0, 249.0, 213.0], "includesElement__vdw_radius_alvarez": [188.0, 284.0, 246.0], "includesElement__vdw_radius_mm3": [236.0, 300.0, 234.0], "includesElement__vdw_radius_uff": [423.0, 364.1, 296.3], "includesElement__abundance_sea": [0.0037, 7.9, 7e-07], "includesElement__atomic_weight_uncertainty": [6e-06, 0.01, 0.02], "includesElement__c6_gb": [260.0, 3230.0, 809.0], "includesElement__covalent_radius_bragg": [126.0, 195.0], "includesElement__electronegativity_allen": [13.08, 5.695, 9.1], "includesElement__en_allen": [13.08, 5.695, 9.1], "includesElement__metallic_radius": [121.0, 191.0, 125.0], "includesElement__metallic_radius_c12": [148.0, 215.0, 134.0], "includesElement__vdw_radius_batsanov": [205.0, 255.0], "includesElement__c6": [246.0, 3175.0], "includesElement__is_monoisotopic": [true], "includesElement__vdw_radius_dreiding": [415.0], "includesElement__vdw_radius_bondi": [185.0], "includesElement__discovery_year": [1790, 1844], "includesElement__fusion_heat": [9.2, 25.5], "includesElement__vdw_radius_truhlar": [249.0], "includesElement__thermal_conductivity": [117.0], "includesElement__gas_basicity": [751.4], "includesElement__proton_affinity": [774.0], "formula": ["As2Ru2Sr1"], "spacegroup": ["139"], "thermalConductivity": [9.21503], "icsd": ["165118"], "band_gap": [0.0], "density": [7.347251], "density_atomic": [19.87079], "deprecated": [false], "efermi": [5.554403], "energy_above_hull": [0.0], "energy_per_atom": [-19.84618], "formation_energy_per_atom": [-0.764225], "is_gap_direct": [false], "is_magnetic": [false], "is_metal": [true], "is_stable": [true], "nelements": [3], "nsites": [5], "num_magnetic_sites": [0], "num_unique_magnetic_sites": [0], "theoretical": [false], "total_magnetization": [1e-07], "total_magnetization_normalized_formula_units": [1e-07], "total_magnetization_normalized_vol": [1.006503e-09], "uncorrected_energy_per_atom": [-19.84618], "volume": [99.35393], "equilibrium_reaction_energy_per_atom": [-0.1199067]}