{"includesElement": ["", "O", "Au", "Rb"], "includesElement___series_id": [1, 8, 3], "includesElement__abundance_crust": [461000.0, 0.004, 90.0], "includesElement__atomic_number": [8, 79, 37], "includesElement__atomic_radius": [60.0, 135.0, 235.0], "includesElement__atomic_radius_rahm": [171.0, 226.0, 240.0], "includesElement__atomic_volume": [14.0, 10.2, 55.9], "includesElement__atomic_weight": [15.999, 196.9666, 85.4678], "includesElement__covalent_radius_cordero": [66.0, 136.0, 220.0], "includesElement__covalent_radius_pyykko": [63.0, 124.0, 210.0], "includesElement__covalent_radius_pyykko_double": [57.0, 121.0, 202.0], "includesElement__covalent_radius_pyykko_triple": [53.0, 123.0], "includesElement__density": [0.001308, 19.3, 1.53], "includesElement__dipole_polarizability": [5.3, 36.0, 319.8], "includesElement__dipole_polarizability_unc": [0.2, 3.0, 0.3], "includesElement__discovery_year": [1774, 1861], "includesElement__electron_affinity": [1.461113, 2.30863, 0.48592], "includesElement__electronegativity_allred-rochow": [0.001146384, 0.0002406348, 4.988662e-05], "includesElement__electronegativity_cottrell-sutton": [0.2687419, 0.1727388, 0.1023533], "includesElement__electronegativity_ghosh": [0.304575, 0.26137, 0.104686], "includesElement__electronegativity_gordy": [0.07222222, 0.02983871, 0.01047619], "includesElement__electronegativity_mulliken": [7.539584, 5.767091, 2.331524], "includesElement__electronegativity_nagle": [1.042218, 0.67354, 0.1462314], "includesElement__electronegativity_pauling": [3.44, 2.4, 0.82], "includesElement__electronegativity_sanderson": [0.9416494, 1.426701, 0.1764136], "includesElement__en_ghosh": [0.304575, 0.26137, 0.104686], "includesElement__en_pauling": [3.44, 2.4, 0.82], "includesElement__glawe_number": [97, 66, 9], "includesElement__group_id": [16, 11, 1], "includesElement__heat_of_formation": [249.229, 368.2, 80.9], "includesElement__is_radioactive": [false], "includesElement__lattice_constant": [6.83, 4.08, 5.59], "includesElement__mendeleev_number": [99, 73, 4], "includesElement__molar_heat_capacity": [29.378, 25.418, 31.06], "includesElement__period": [2, 6, 5], "includesElement__pettifor_number": [101, 70, 9], "includesElement__specific_heat_capacity": [0.918, 0.129, 0.363], "includesElement__vdw_radius": [152.0, 214.0, 303.0], "includesElement__vdw_radius_alvarez": [150.0, 232.0, 321.0], "includesElement__vdw_radius_mm3": [182.0, 243.0, 325.0], "includesElement__vdw_radius_uff": [350.0, 329.3, 411.4], "includesElement__abundance_sea": [857000.0, 4e-06, 0.12], "includesElement__c6_gb": [16.7, 427.0, 4660.0], "includesElement__covalent_radius_bragg": [65.0, 225.0], "includesElement__electronegativity_allen": [21.36, 11.33, 4.177], "includesElement__en_allen": [21.36, 11.33, 4.177], "includesElement__thermal_conductivity": [0.027, 318.0, 58.2], "includesElement__vdw_radius_batsanov": [155.0, 210.0, 290.0], "includesElement__c6": [15.6, 4769.0], "includesElement__vdw_radius_dreiding": [340.46], "includesElement__gas_basicity": [459.6], "includesElement__proton_affinity": [485.2], "includesElement__vdw_radius_bondi": [152.0], "includesElement__vdw_radius_rt": [158.0], "includesElement__evaporation_heat": [340.0, 75.8], "includesElement__fusion_heat": [12.68, 2.2], "includesElement__atomic_weight_uncertainty": [5e-06, 0.0003], "includesElement__metallic_radius": [134.0, 216.0], "includesElement__metallic_radius_c12": [144.0, 248.0], "includesElement__is_monoisotopic": [true], "includesElement__vdw_radius_truhlar": [303.0], "formula": ["Au1O1Rb3"], "spacegroup": ["221"], "thermalConductivity": [0.700436], "icsd": ["75499"], "band_gap": [0.1979], "density": [4.66088], "density_atomic": [33.4446], "deprecated": [false], "efermi": [1.022101], "energy_above_hull": [0.0], "energy_per_atom": [-3.048704], "formation_energy_per_atom": [-0.8151545], "homogeneous_poisson": [0.249], "is_gap_direct": [false], "is_magnetic": [false], "is_metal": [false], "is_stable": [true], "nelements": [3], "nsites": [5], "num_magnetic_sites": [0], "num_unique_magnetic_sites": [0], "theoretical": [false], "total_magnetization": [0.0], "total_magnetization_normalized_formula_units": [0.0], "total_magnetization_normalized_vol": [0.0], "uncorrected_energy_per_atom": [-20.428], "universal_anisotropy": [0.385], "volume": [167.223], "cbm": [1.0855], "e_electronic": [6.405117], "e_ionic": [16.03298], "e_total": [22.4381], "equilibrium_reaction_energy_per_atom": [-0.005714437], "n": [2.530833], "vbm": [0.8876]}