{"includesElement": ["", "Sn", "Pt", "Th"], "includesElement___series_id": [7, 8, 10], "includesElement__abundance_crust": [2.3, 0.005, 9.6], "includesElement__atomic_number": [50, 78, 90], "includesElement__atomic_radius": [145.0, 135.0, 180.0], "includesElement__atomic_radius_rahm": [248.0, 230.0, 288.0], "includesElement__atomic_volume": [16.3, 9.1, 19.8], "includesElement__atomic_weight": [118.71, 195.084, 232.0377], "includesElement__covalent_radius_cordero": [139.0, 136.0, 206.0], "includesElement__covalent_radius_pyykko": [140.0, 123.0, 175.0], "includesElement__covalent_radius_pyykko_double": [130.0, 112.0, 143.0], "includesElement__covalent_radius_pyykko_triple": [132.0, 110.0, 136.0], "includesElement__density": [7.287, 21.5, 11.7], "includesElement__dipole_polarizability": [53.0, 48.0, 217.0], "includesElement__dipole_polarizability_unc": [6.0, 4.0, 54.0], "includesElement__electron_affinity": [1.112067, 2.128], "includesElement__electronegativity_allred-rochow": [0.0002882653, 0.0002346487, 0.0001028571], "includesElement__electronegativity_cottrell-sutton": [0.2008909, 0.1698876, 0.1341641], "includesElement__electronegativity_ghosh": [0.178052, 0.25691, 0.10277], "includesElement__electronegativity_gordy": [0.04035714, 0.02886179, 0.018], "includesElement__electronegativity_mulliken": [4.227992, 5.543415, 3.15335], "includesElement__electronegativity_nagle": [0.4225986, 0.5928156, 0.2641598], "includesElement__electronegativity_pauling": [1.96, 2.2, 1.3], "includesElement__electronegativity_sanderson": [0.7622797, 1.45101, 0.5557019], "includesElement__en_ghosh": [0.178052, 0.25691, 0.10277], "includesElement__en_pauling": [1.96, 2.2, 1.3], "includesElement__evaporation_heat": [296.0, 470.0, 513.7], "includesElement__fusion_heat": [7.07, 21.76, 16.11], "includesElement__glawe_number": [83, 64, 34], "includesElement__group_id": [14, 10], "includesElement__heat_of_formation": [301.2, 565.7, 602.0], "includesElement__is_radioactive": [false, true], "includesElement__lattice_constant": [5.82, 3.92, 5.08], "includesElement__mendeleev_number": [90, 69, 16], "includesElement__molar_heat_capacity": [26.99, 25.86, 27.32], "includesElement__period": [5, 6, 7], "includesElement__pettifor_number": [83, 68, 47], "includesElement__specific_heat_capacity": [0.227, 0.133, 0.118], "includesElement__vdw_radius": [217.0, 213.0, 245.0], "includesElement__vdw_radius_alvarez": [242.0, 229.0, 293.0], "includesElement__vdw_radius_mm3": [259.0, 239.0, 274.0], "includesElement__vdw_radius_uff": [439.2, 275.4, 339.6], "includesElement__abundance_sea": [4e-06, 1e-06], "includesElement__atomic_weight_uncertainty": [0.007, 0.009, 0.0004], "includesElement__c6_gb": [715.0, 470.0], "includesElement__covalent_radius_bragg": [140.0], "includesElement__electronegativity_allen": [10.79, 10.16], "includesElement__en_allen": [10.79, 10.16], "includesElement__metallic_radius": [142.0, 130.0], "includesElement__metallic_radius_c12": [163.0, 139.0], "includesElement__thermal_conductivity": [66.8, 71.6], "includesElement__vdw_radius_batsanov": [225.0, 205.0, 240.0], "includesElement__c6": [659.0], "includesElement__vdw_radius_dreiding": [447.0], "includesElement__vdw_radius_bondi": [217.0], "includesElement__discovery_year": [1735, 1828], "formula": ["Pt1Sn1Th1", "ThSnPt"], "mp_id": ["19886"], "spacegroup": ["216"], "thermalConductivity": [4.44481, 4.15], "icsd": ["108712"], "band_gap": [0.6738], "density": [11.53596], "density_atomic": [26.18987], "deprecated": [false], "efermi": [6.861787], "energy_above_hull": [0.0], "energy_per_atom": [-51.09509], "formation_energy_per_atom": [-1.192033], "homogeneous_poisson": [0.327], "is_gap_direct": [true], "is_magnetic": [false], "is_metal": [false], "is_stable": [true], "nelements": [3], "nsites": [3], "num_magnetic_sites": [0], "num_unique_magnetic_sites": [0], "theoretical": [false], "total_magnetization": [0.0], "total_magnetization_normalized_formula_units": [0.0], "total_magnetization_normalized_vol": [0.0], "uncorrected_energy_per_atom": [-51.09509], "universal_anisotropy": [0.197], "volume": [78.5696], "cbm": [7.4932], "e_electronic": [25.64859], "e_ionic": [2.303631], "e_total": [27.95222], "equilibrium_reaction_energy_per_atom": [-0.2254228], "n": [5.064444], "vbm": [6.8194], "e_ij_max": [0.4897067]}