{"includesElement": ["", "K", "Cl", "Pt"], "includesElement___series_id": [3, 6, 8], "includesElement__abundance_crust": [20900.0, 145.0, 0.005], "includesElement__atomic_number": [19, 17, 78], "includesElement__atomic_radius": [220.0, 100.0, 135.0], "includesElement__atomic_radius_rahm": [234.0, 206.0, 230.0], "includesElement__atomic_volume": [45.3, 18.7, 9.1], "includesElement__atomic_weight": [39.0983, 35.45, 195.084], "includesElement__covalent_radius_cordero": [203.0, 102.0, 136.0], "includesElement__covalent_radius_pyykko": [196.0, 99.0, 123.0], "includesElement__covalent_radius_pyykko_double": [193.0, 95.0, 112.0], "includesElement__density": [0.89, 0.002898, 21.5], "includesElement__dipole_polarizability": [289.7, 14.6, 48.0], "includesElement__dipole_polarizability_unc": [0.3, 0.1, 4.0], "includesElement__discovery_year": [1807, 1774, 1735], "includesElement__electron_affinity": [0.50147, 3.612725, 2.128], "includesElement__electronegativity_allred-rochow": [5.726781e-05, 0.0006223855, 0.0002346487], "includesElement__electronegativity_cottrell-sutton": [0.1059457, 0.248226, 0.1698876], "includesElement__electronegativity_ghosh": [0.0981896, 0.263803, 0.25691], "includesElement__electronegativity_gordy": [0.01122449, 0.06161616, 0.02886179], "includesElement__electronegativity_mulliken": [2.421067, 8.290178, 5.543415], "includesElement__electronegativity_nagle": [0.1511299, 0.7826755, 0.5928156], "includesElement__electronegativity_pauling": [0.82, 3.16, 2.2], "includesElement__electronegativity_sanderson": [0.1218383, 0.8123773, 1.45101], "includesElement__en_ghosh": [0.0981896, 0.263803, 0.25691], "includesElement__en_pauling": [0.82, 3.16, 2.2], "includesElement__evaporation_heat": [2.33, 20.41, 470.0], "includesElement__fusion_heat": [102.5, 6.41, 21.76], "includesElement__glawe_number": [10, 101, 64], "includesElement__group_id": [1, 17, 10], "includesElement__heat_of_formation": [89.0, 121.302, 565.7], "includesElement__is_radioactive": [false], "includesElement__lattice_constant": [5.23, 6.24, 3.92], "includesElement__mendeleev_number": [3, 107, 69], "includesElement__molar_heat_capacity": [29.6, 33.949, 25.86], "includesElement__period": [4, 3, 6], "includesElement__pettifor_number": [10, 99, 68], "includesElement__specific_heat_capacity": [0.757, 0.479, 0.133], "includesElement__vdw_radius": [275.0, 175.0, 213.0], "includesElement__vdw_radius_alvarez": [273.0, 182.0, 229.0], "includesElement__vdw_radius_mm3": [309.0, 207.0, 239.0], "includesElement__vdw_radius_uff": [381.2, 394.7, 275.4], "includesElement__abundance_sea": [399.0, 19400.0], "includesElement__atomic_weight_uncertainty": [0.0001, 0.009], "includesElement__c6_gb": [3910.0, 97.1, 470.0], "includesElement__covalent_radius_bragg": [207.0, 105.0], "includesElement__electronegativity_allen": [4.34, 16.97, 10.16], "includesElement__en_allen": [4.34, 16.97, 10.16], "includesElement__metallic_radius": [203.0, 130.0], "includesElement__metallic_radius_c12": [235.0, 91.0, 139.0], "includesElement__thermal_conductivity": [79.0, 0.009, 71.6], "includesElement__vdw_radius_batsanov": [280.0, 180.0, 205.0], "includesElement__c6": [3923.0, 94.6], "includesElement__vdw_radius_bondi": [275.0, 175.0], "includesElement__covalent_radius_pyykko_triple": [93.0, 110.0], "includesElement__vdw_radius_dreiding": [395.03], "includesElement__gas_basicity": [490.1], "includesElement__proton_affinity": [513.6], "includesElement__vdw_radius_rt": [176.0], "formula": ["Cl6K2Pt1"], "spacegroup": ["225"], "thermalConductivity": [1.35828], "icsd": ["2582"], "band_gap": [1.8566], "density": [3.449255], "density_atomic": [25.99658], "deprecated": [false], "efermi": [-0.2839575], "energy_above_hull": [0.0], "energy_per_atom": [-12.53327], "formation_energy_per_atom": [-1.373397], "homogeneous_poisson": [0.279], "is_gap_direct": [true], "is_magnetic": [false], "is_metal": [false], "is_stable": [true], "nelements": [3], "nsites": [9], "num_magnetic_sites": [0], "num_unique_magnetic_sites": [0], "theoretical": [false], "total_magnetization": [0.0], "total_magnetization_normalized_formula_units": [0.0], "total_magnetization_normalized_vol": [0.0], "uncorrected_energy_per_atom": [-12.53327], "universal_anisotropy": [0.059], "volume": [233.9692], "cbm": [1.5002], "e_electronic": [3.183703], "e_ionic": [6.325773], "e_total": [9.509476], "equilibrium_reaction_energy_per_atom": [-0.183096], "n": [1.784293], "vbm": [-0.3564]}