{"includesElement": ["", "Ce", "Te"], "includesElement___series_id": [9, 5], "includesElement__abundance_crust": [66.5, 0.001], "includesElement__atomic_number": [58, 52], "includesElement__atomic_radius": [185.0, 140.0], "includesElement__atomic_radius_rahm": [282.0, 242.0], "includesElement__atomic_volume": [21.0, 20.5], "includesElement__atomic_weight": [140.116, 127.6], "includesElement__covalent_radius_cordero": [204.0, 138.0], "includesElement__covalent_radius_pyykko": [163.0, 136.0], "includesElement__covalent_radius_pyykko_double": [137.0, 128.0], "includesElement__covalent_radius_pyykko_triple": [131.0, 121.0], "includesElement__density": [6.77, 6.232], "includesElement__dipole_polarizability": [205.0, 38.0], "includesElement__dipole_polarizability_unc": [20.0, 4.0], "includesElement__discovery_year": [1803, 1782], "includesElement__electron_affinity": [0.65, 1.970876], "includesElement__electronegativity_allred-rochow": [0.0001129135, 0.0003757569], "includesElement__electronegativity_cottrell-sutton": [0.1356647, 0.2260596], "includesElement__electronegativity_ghosh": [0.16761, 0.2056992], "includesElement__electronegativity_gordy": [0.01840491, 0.05110294], "includesElement__electronegativity_mulliken": [3.0943, 5.490268], "includesElement__electronegativity_nagle": [0.2692167, 0.5404919], "includesElement__electronegativity_pauling": [1.12, 2.1], "includesElement__electronegativity_sanderson": [0.5356179, 0.8622506], "includesElement__en_ghosh": [0.16761, 0.2056992], "includesElement__en_pauling": [1.12, 2.1], "includesElement__evaporation_heat": [398.0, 49.8], "includesElement__fusion_heat": [5.2, 17.91], "includesElement__glawe_number": [31, 94], "includesElement__heat_of_formation": [420.1, 196.6], "includesElement__is_radioactive": [false], "includesElement__lattice_constant": [5.16, 4.45], "includesElement__mendeleev_number": [15, 102], "includesElement__molar_heat_capacity": [26.94, 25.73], "includesElement__period": [6, 5], "includesElement__pettifor_number": [32, 92], "includesElement__specific_heat_capacity": [0.192, 0.202], "includesElement__vdw_radius": [242.0, 206.0], "includesElement__vdw_radius_alvarez": [288.0, 199.0], "includesElement__vdw_radius_mm3": [274.0, 244.0], "includesElement__vdw_radius_uff": [355.6, 447.0], "includesElement__abundance_sea": [1.2e-06], "includesElement__atomic_weight_uncertainty": [0.001, 0.03], "includesElement__c6_gb": [3480.0, 471.0], "includesElement__thermal_conductivity": [11.3, 14.3], "includesElement__group_id": [16], "includesElement__covalent_radius_bragg": [133.0], "includesElement__electronegativity_allen": [12.76], "includesElement__en_allen": [12.76], "includesElement__metallic_radius": [137.0], "includesElement__metallic_radius_c12": [160.0], "includesElement__vdw_radius_batsanov": [210.0], "includesElement__c6": [445.0], "includesElement__vdw_radius_dreiding": [423.0], "includesElement__vdw_radius_bondi": [206.0], "formula": ["Ce1Te1"], "spacegroup": ["225"], "thermalConductivity": [4.01069], "icsd": ["183947"], "band_gap": [0.0], "density": [6.700604], "density_atomic": [33.1726], "deprecated": [false], "efermi": [7.807795], "energy_above_hull": [0.0], "energy_per_atom": [-6.111994], "formation_energy_per_atom": [-1.571866], "is_gap_direct": [false], "is_magnetic": [true], "is_metal": [true], "is_stable": [true], "nelements": [2], "nsites": [2], "num_magnetic_sites": [1], "num_unique_magnetic_sites": [1], "theoretical": [false], "total_magnetization": [1.378357], "total_magnetization_normalized_formula_units": [1.378357], "total_magnetization_normalized_vol": [0.02077553], "uncorrected_energy_per_atom": [-29.74413], "volume": [66.34519], "equilibrium_reaction_energy_per_atom": [-0.1333256]}