{"includesElement": ["", "F", "Sc"], "includesElement___series_id": [6, 8], "includesElement__abundance_crust": [585.0, 22.0], "includesElement__atomic_number": [9, 21], "includesElement__atomic_radius": [50.0, 160.0], "includesElement__atomic_radius_rahm": [163.0, 263.0], "includesElement__atomic_volume": [17.1, 15.0], "includesElement__atomic_weight": [18.9984, 44.95591], "includesElement__covalent_radius_cordero": [57.0, 170.0], "includesElement__covalent_radius_pyykko": [64.0, 148.0], "includesElement__covalent_radius_pyykko_double": [59.0, 116.0], "includesElement__covalent_radius_pyykko_triple": [53.0, 114.0], "includesElement__density": [0.001553, 2.99], "includesElement__dipole_polarizability": [3.74, 97.0], "includesElement__dipole_polarizability_unc": [0.08, 10.0], "includesElement__discovery_year": [1886, 1879], "includesElement__electron_affinity": [3.40119, 0.188], "includesElement__electronegativity_allred-rochow": [0.001269531, 0.0001369613], "includesElement__electronegativity_cottrell-sutton": [0.2850439, 0.1423737], "includesElement__electronegativity_ghosh": [0.344443, 0.1193833], "includesElement__electronegativity_gordy": [0.08125, 0.02027027], "includesElement__electronegativity_mulliken": [10.412, 3.374745], "includesElement__electronegativity_nagle": [1.232373, 0.3138941], "includesElement__electronegativity_pauling": [3.98, 1.36], "includesElement__electronegativity_sanderson": [1.017681, 0.3038674], "includesElement__en_ghosh": [0.344443, 0.1193833], "includesElement__en_pauling": [3.98, 1.36], "includesElement__evaporation_heat": [6.54, 332.7], "includesElement__fusion_heat": [0.51, 15.8], "includesElement__glawe_number": [102, 48], "includesElement__group_id": [17, 3], "includesElement__heat_of_formation": [79.335, 377.8], "includesElement__is_radioactive": [false], "includesElement__mendeleev_number": [106, 11], "includesElement__molar_heat_capacity": [31.304, 25.52], "includesElement__period": [2, 4], "includesElement__pettifor_number": [102, 20], "includesElement__specific_heat_capacity": [0.824, 0.568], "includesElement__vdw_radius": [147.0, 215.0], "includesElement__vdw_radius_alvarez": [146.0, 258.0], "includesElement__vdw_radius_mm3": [171.0, 261.0], "includesElement__vdw_radius_uff": [336.4, 329.5], "includesElement__abundance_sea": [1.3, 6e-07], "includesElement__atomic_weight_uncertainty": [6e-09, 5e-06], "includesElement__c6_gb": [10.2, 1570.0], "includesElement__covalent_radius_bragg": [67.0], "includesElement__electronegativity_allen": [24.8, 7.042], "includesElement__en_allen": [24.8, 7.042], "includesElement__thermal_conductivity": [0.028, 15.8], "includesElement__vdw_radius_batsanov": [150.0, 230.0], "includesElement__c6": [9.52, 1383.0], "includesElement__is_monoisotopic": [true], "includesElement__vdw_radius_dreiding": [347.2], "includesElement__gas_basicity": [315.1, 892.0], "includesElement__proton_affinity": [340.1, 914.0], "includesElement__vdw_radius_bondi": [147.0], "includesElement__vdw_radius_rt": [146.0], "includesElement__lattice_constant": [3.31], "includesElement__metallic_radius": [144.0], "includesElement__metallic_radius_c12": [162.0], "formula": ["F3Sc1"], "spacegroup": ["221"], "thermalConductivity": [7.78231], "icsd": ["261067"], "band_gap": [6.0978], "density": [2.568677], "density_atomic": [16.47675], "deprecated": [false], "efermi": [-3.614425], "energy_above_hull": [0.0002510338], "energy_per_atom": [-9.411758], "formation_energy_per_atom": [-4.219396], "homogeneous_poisson": [0.304], "is_gap_direct": [false], "is_magnetic": [false], "is_metal": [false], "is_stable": [false], "nelements": [2], "nsites": [4], "num_magnetic_sites": [0], "num_unique_magnetic_sites": [0], "theoretical": [false], "total_magnetization": [0.0], "total_magnetization_normalized_formula_units": [0.0], "total_magnetization_normalized_vol": [0.0], "uncorrected_energy_per_atom": [-9.411758], "universal_anisotropy": [5.032], "volume": [65.90701], "cbm": [2.4164], "e_electronic": [2.262916], "e_ionic": [6.120269], "e_total": [8.383186], "n": [1.504299], "vbm": [-3.6814]}