{"includesElement": ["", "Mg", "La", "Ir"], "includesElement___series_id": [4, 9, 8], "includesElement__abundance_crust": [23300.0, 39.0, 0.001], "includesElement__atomic_number": [12, 57, 77], "includesElement__atomic_radius": [150.0, 195.0, 135.0], "includesElement__atomic_radius_rahm": [240.0, 284.0], "includesElement__atomic_volume": [14.0, 22.5, 8.54], "includesElement__atomic_weight": [24.305, 138.9055, 192.217], "includesElement__covalent_radius_cordero": [141.0, 207.0], "includesElement__covalent_radius_pyykko": [139.0, 180.0, 122.0], "includesElement__covalent_radius_pyykko_double": [132.0, 139.0, 115.0], "includesElement__covalent_radius_pyykko_triple": [127.0, 139.0, 107.0], "includesElement__density": [1.74, 6.15, 22.5622], "includesElement__dipole_polarizability": [71.2, 215.0, 54.0], "includesElement__dipole_polarizability_unc": [0.4, 20.0, 7.0], "includesElement__discovery_year": [1808, 1839, 1804], "includesElement__electronegativity_allred-rochow": [0.0001475079, 9.259259e-05, 0.0002620263], "includesElement__electronegativity_cottrell-sutton": [0.1431908, 0.1290994, 0.1787938], "includesElement__electronegativity_ghosh": [0.121644, 0.163142, 0.25106], "includesElement__electronegativity_gordy": [0.0205036, 0.01666667, 0.03196721], "includesElement__electronegativity_mulliken": [3.823117, 3.02345, 5.26541], "includesElement__electronegativity_nagle": [0.3039835, 0.240747, 0.5503212], "includesElement__electronegativity_pauling": [1.31, 1.1, 2.2], "includesElement__electronegativity_sanderson": [0.1524211, 0.3946505, 1.475998], "includesElement__en_ghosh": [0.121644, 0.163142, 0.25106], "includesElement__en_pauling": [1.31, 1.1, 2.2], "includesElement__evaporation_heat": [131.8, 402.0, 604.0], "includesElement__fusion_heat": [9.2, 8.5, 27.61], "includesElement__glawe_number": [73, 32, 62], "includesElement__group_id": [2, 3, 9], "includesElement__heat_of_formation": [147.1, 431.0, 669.0], "includesElement__is_radioactive": [false], "includesElement__lattice_constant": [3.21, 3.75, 3.84], "includesElement__mendeleev_number": [76, 13, 65], "includesElement__molar_heat_capacity": [24.869, 27.11, 25.1], "includesElement__period": [3, 6], "includesElement__pettifor_number": [73, 33, 65], "includesElement__specific_heat_capacity": [1.023, 0.195, 0.131], "includesElement__vdw_radius": [173.0, 243.0, 213.0], "includesElement__vdw_radius_alvarez": [251.0, 298.0, 241.0], "includesElement__vdw_radius_mm3": [243.0, 278.0, 236.0], "includesElement__vdw_radius_uff": [302.1, 352.2, 284.0], "includesElement__abundance_sea": [1290.0, 3.4e-06], "includesElement__c6_gb": [629.0, 3730.0, 522.0], "includesElement__covalent_radius_bragg": [142.0], "includesElement__electronegativity_allen": [7.646, 9.96], "includesElement__en_allen": [7.646, 9.96], "includesElement__metallic_radius": [136.0, 169.0, 127.0], "includesElement__metallic_radius_c12": [160.0, 187.0, 136.0], "includesElement__thermal_conductivity": [156.0, 13.4, 147.0], "includesElement__vdw_radius_batsanov": [220.0, 250.0, 200.0], "includesElement__c6": [626.0], "includesElement__gas_basicity": [797.3, 991.9], "includesElement__proton_affinity": [819.6, 1013.0], "includesElement__vdw_radius_bondi": [173.0], "includesElement__electron_affinity": [0.47, 1.5638], "includesElement__atomic_weight_uncertainty": [7e-05, 0.003], "formula": ["Ir4La16Mg4"], "spacegroup": ["216"], "thermalConductivity": [1.07283], "icsd": ["418746"], "band_gap": [0.0], "density": [6.848581], "density_atomic": [31.20294], "deprecated": [false], "efermi": [7.324661], "energy_above_hull": [0.0], "energy_per_atom": [-5.417363], "formation_energy_per_atom": [-0.381874], "is_gap_direct": [false], "is_magnetic": [false], "is_metal": [true], "is_stable": [true], "nelements": [3], "nsites": [24], "num_magnetic_sites": [0], "num_unique_magnetic_sites": [0], "theoretical": [false], "total_magnetization": [1.3e-06], "total_magnetization_normalized_formula_units": [3.25e-07], "total_magnetization_normalized_vol": [1.735948e-09], "uncorrected_energy_per_atom": [-29.69245], "volume": [748.8705], "equilibrium_reaction_energy_per_atom": [-0.001006258]}