{"includesElement": ["", "Se", "N", "Th"], "includesElement___series_id": [1, 10], "includesElement__abundance_crust": [0.05, 19.0, 9.6], "includesElement__atomic_number": [34, 7, 90], "includesElement__atomic_radius": [115.0, 65.0, 180.0], "includesElement__atomic_radius_rahm": [224.0, 179.0, 288.0], "includesElement__atomic_volume": [16.5, 17.3, 19.8], "includesElement__atomic_weight": [78.971, 14.007, 232.0377], "includesElement__covalent_radius_cordero": [120.0, 71.0, 206.0], "includesElement__covalent_radius_pyykko": [116.0, 71.0, 175.0], "includesElement__covalent_radius_pyykko_double": [107.0, 60.0, 143.0], "includesElement__covalent_radius_pyykko_triple": [107.0, 54.0, 136.0], "includesElement__density": [4.809, 0.001145, 11.7], "includesElement__dipole_polarizability": [28.9, 7.4, 217.0], "includesElement__dipole_polarizability_unc": [1.0, 0.2, 54.0], "includesElement__discovery_year": [1818, 1772, 1828], "includesElement__electron_affinity": [2.02067, -1.4], "includesElement__electronegativity_allred-rochow": [0.0005164982, 0.000773656, 0.0001028571], "includesElement__electronegativity_cottrell-sutton": [0.2447729, 0.2343706, 0.1341641], "includesElement__electronegativity_ghosh": [0.2240328, 0.26493, 0.10277], "includesElement__electronegativity_gordy": [0.05991379, 0.05492958, 0.018], "includesElement__electronegativity_mulliken": [5.886531, 6.567065, 3.15335], "includesElement__electronegativity_nagle": [0.592131, 0.8774979, 0.2641598], "includesElement__electronegativity_pauling": [2.55, 3.04, 1.3], "includesElement__electronegativity_sanderson": [0.9659121, 0.577482, 0.5557019], "includesElement__en_ghosh": [0.2240328, 0.26493, 0.10277], "includesElement__en_pauling": [2.55, 3.04, 1.3], "includesElement__evaporation_heat": [59.7, 513.7], "includesElement__fusion_heat": [5.23, 16.11], "includesElement__glawe_number": [95, 88, 34], "includesElement__group_id": [16, 15], "includesElement__heat_of_formation": [227.2, 472.44, 602.0], "includesElement__is_radioactive": [false, true], "includesElement__lattice_constant": [4.36, 4.039, 5.08], "includesElement__mendeleev_number": [101, 93, 16], "includesElement__molar_heat_capacity": [25.363, 29.124, 27.32], "includesElement__period": [4, 2, 7], "includesElement__pettifor_number": [93, 100, 47], "includesElement__specific_heat_capacity": [0.321, 1.04, 0.118], "includesElement__vdw_radius": [190.0, 155.0, 245.0], "includesElement__vdw_radius_alvarez": [182.0, 166.0, 293.0], "includesElement__vdw_radius_mm3": [229.0, 193.0, 274.0], "includesElement__vdw_radius_uff": [420.5, 366.0, 339.6], "includesElement__abundance_sea": [0.0002, 0.5, 1e-06], "includesElement__atomic_weight_uncertainty": [0.008, 0.0004], "includesElement__c6_gb": [233.0, 25.7], "includesElement__covalent_radius_bragg": [117.0, 65.0], "includesElement__electronegativity_allen": [14.34, 18.13], "includesElement__en_allen": [14.34, 18.13], "includesElement__metallic_radius": [117.0], "includesElement__metallic_radius_c12": [140.0, 53.0], "includesElement__thermal_conductivity": [0.52, 0.026], "includesElement__vdw_radius_batsanov": [190.0, 160.0, 240.0], "includesElement__c6": [210.0, 24.2], "includesElement__vdw_radius_dreiding": [403.0, 366.21], "includesElement__vdw_radius_bondi": [190.0, 155.0], "includesElement__gas_basicity": [318.7], "includesElement__proton_affinity": [342.2], "includesElement__vdw_radius_rt": [164.0], "formula": ["N2Se1Th2"], "spacegroup": ["164"], "thermalConductivity": [8.74277], "icsd": ["23211"], "band_gap": [1.3592], "density": [9.328971], "density_atomic": [20.32914], "deprecated": [false], "efermi": [5.489567], "energy_above_hull": [0.0], "energy_per_atom": [-38.13739], "formation_energy_per_atom": [-2.233468], "is_gap_direct": [false], "is_magnetic": [false], "is_metal": [false], "is_stable": [true], "nelements": [3], "nsites": [5], "num_magnetic_sites": [0], "num_unique_magnetic_sites": [0], "theoretical": [false], "total_magnetization": [0.0], "total_magnetization_normalized_formula_units": [0.0], "total_magnetization_normalized_vol": [0.0], "uncorrected_energy_per_atom": [-38.13739], "volume": [101.6457], "cbm": [6.8042], "equilibrium_reaction_energy_per_atom": [-0.3073441], "vbm": [5.445]}