{"includesElement": ["", "Cs", "Te", "Br"], "includesElement___series_id": [3, 5, 6], "includesElement__abundance_crust": [3.0, 0.001, 2.4], "includesElement__atomic_number": [55, 52, 35], "includesElement__atomic_radius": [260.0, 140.0, 115.0], "includesElement__atomic_radius_rahm": [249.0, 242.0, 219.0], "includesElement__atomic_volume": [70.0, 20.5, 23.5], "includesElement__atomic_weight": [132.9055, 127.6, 79.904], "includesElement__covalent_radius_cordero": [244.0, 138.0, 120.0], "includesElement__covalent_radius_pyykko": [232.0, 136.0, 114.0], "includesElement__covalent_radius_pyykko_double": [209.0, 128.0, 109.0], "includesElement__density": [1.873, 6.232, 3.1028], "includesElement__dipole_polarizability": [400.9, 38.0, 21.0], "includesElement__dipole_polarizability_unc": [0.7, 4.0, 1.0], "includesElement__discovery_year": [1860, 1782, 1826], "includesElement__electron_affinity": [0.471626, 1.970876, 3.363588], "includesElement__electronegativity_allred-rochow": [4.087396e-05, 0.0003757569, 0.0005847953], "includesElement__electronegativity_cottrell-sutton": [0.09737946, 0.2260596, 0.2581989], "includesElement__electronegativity_ghosh": [0.1542125, 0.2056992, 0.2412578], "includesElement__electronegativity_gordy": [0.009482759, 0.05110294, 0.06666667], "includesElement__electronegativity_mulliken": [2.182766, 5.490268, 7.588699], "includesElement__electronegativity_nagle": [0.1356192, 0.5404919, 0.6933613], "includesElement__electronegativity_pauling": [0.79, 2.1, 2.96], "includesElement__electronegativity_sanderson": [0.1814531, 0.8622506, 1.049026], "includesElement__en_ghosh": [0.1542125, 0.2056992, 0.2412578], "includesElement__en_pauling": [0.79, 2.1, 2.96], "includesElement__evaporation_heat": [68.3, 49.8, 29.56], "includesElement__fusion_heat": [2.09, 17.91, 10.57], "includesElement__glawe_number": [8, 94, 100], "includesElement__group_id": [1, 16, 17], "includesElement__heat_of_formation": [76.5, 196.6, 111.85], "includesElement__is_radioactive": [false], "includesElement__lattice_constant": [6.05, 4.45, 6.67], "includesElement__mendeleev_number": [5, 102, 108], "includesElement__molar_heat_capacity": [32.21, 25.73, 75.69], "includesElement__period": [6, 5, 4], "includesElement__pettifor_number": [8, 92, 98], "includesElement__specific_heat_capacity": [0.242, 0.202, 0.474], "includesElement__vdw_radius": [343.0, 206.0, 185.0], "includesElement__vdw_radius_alvarez": [348.0, 199.0, 186.0], "includesElement__vdw_radius_mm3": [344.0, 244.0, 222.0], "includesElement__vdw_radius_uff": [451.7, 447.0, 418.9], "includesElement__abundance_sea": [0.0003, 67.3], "includesElement__atomic_weight_uncertainty": [6e-08, 0.03], "includesElement__c6_gb": [6660.0, 471.0, 187.0], "includesElement__covalent_radius_bragg": [237.0, 133.0, 119.0], "includesElement__electronegativity_allen": [3.898, 12.76, 15.88], "includesElement__en_allen": [3.898, 12.76, 15.88], "includesElement__metallic_radius": [235.0, 137.0], "includesElement__metallic_radius_c12": [267.0, 160.0, 117.0], "includesElement__thermal_conductivity": [35.9, 14.3, 0.005], "includesElement__vdw_radius_batsanov": [300.0, 210.0, 190.0], "includesElement__is_monoisotopic": [true], "includesElement__vdw_radius_truhlar": [343.0], "includesElement__covalent_radius_pyykko_triple": [121.0, 110.0], "includesElement__c6": [445.0, 162.0], "includesElement__vdw_radius_dreiding": [423.0, 395.0], "includesElement__vdw_radius_bondi": [206.0, 183.0], "includesElement__gas_basicity": [531.2], "includesElement__proton_affinity": [554.4], "includesElement__vdw_radius_rt": [187.0], "formula": ["Br24Cs8Te4"], "spacegroup": ["225"], "thermalConductivity": [0.24536], "icsd": ["24151"], "band_gap": [2.1121], "density": [4.26219], "density_atomic": [37.78382], "deprecated": [false], "efermi": [-0.09562952], "energy_above_hull": [0.0], "energy_per_atom": [-3.096818], "formation_energy_per_atom": [-1.512492], "is_gap_direct": [false], "is_magnetic": [false], "is_metal": [false], "is_stable": [true], "nelements": [3], "nsites": [9], "num_magnetic_sites": [0], "num_unique_magnetic_sites": [0], "theoretical": [false], "total_magnetization": [0.0], "total_magnetization_normalized_formula_units": [0.0], "total_magnetization_normalized_vol": [0.0], "uncorrected_energy_per_atom": [-18.48671], "volume": [340.0544], "cbm": [1.9572], "equilibrium_reaction_energy_per_atom": [-0.09113277], "vbm": [-0.1549]}