{"includesElement": ["", "Ba", "Sb", "Li"], "includesElement___series_id": [4, 5, 3], "includesElement__abundance_crust": [425.0, 0.2, 20.0], "includesElement__atomic_number": [56, 51, 3], "includesElement__atomic_radius": [215.0, 145.0], "includesElement__atomic_radius_rahm": [293.0, 246.0, 220.0], "includesElement__atomic_volume": [39.0, 18.4, 13.1], "includesElement__atomic_weight": [137.327, 121.76, 6.94], "includesElement__covalent_radius_cordero": [215.0, 139.0, 128.0], "includesElement__covalent_radius_pyykko": [196.0, 140.0, 133.0], "includesElement__covalent_radius_pyykko_double": [161.0, 133.0, 124.0], "includesElement__covalent_radius_pyykko_triple": [149.0, 127.0], "includesElement__density": [3.62, 6.68, 0.534], "includesElement__dipole_polarizability": [272.0, 43.0, 164.1125], "includesElement__dipole_polarizability_unc": [10.0, 2.0, 0.0005], "includesElement__discovery_year": [1808, 1817], "includesElement__electron_affinity": [0.14462, 1.046, 0.618049], "includesElement__electronegativity_allred-rochow": [7.418784e-05, 0.0003214286, 7.3492e-05], "includesElement__electronegativity_cottrell-sutton": [0.1205853, 0.212132, 0.09886575], "includesElement__electronegativity_ghosh": [0.1586786, 0.1918774, 0.105093], "includesElement__electronegativity_gordy": [0.01454082, 0.045, 0.009774436], "includesElement__electronegativity_mulliken": [2.678142, 4.827195, 3.004882], "includesElement__electronegativity_nagle": [0.1944556, 0.4880907, 0.1826499], "includesElement__electronegativity_pauling": [0.89, 2.05, 0.98], "includesElement__electronegativity_sanderson": [0.3032951, 0.7762722, 0.04886793], "includesElement__en_ghosh": [0.1586786, 0.1918774, 0.105093], "includesElement__en_pauling": [0.89, 2.05, 0.98], "includesElement__evaporation_heat": [142.0, 195.2, 148.0], "includesElement__fusion_heat": [7.66, 20.08, 2.89], "includesElement__glawe_number": [14, 91, 12], "includesElement__group_id": [2, 15, 1], "includesElement__heat_of_formation": [179.1, 264.4, 159.3], "includesElement__is_radioactive": [false], "includesElement__lattice_constant": [5.02, 4.51, 3.49], "includesElement__mendeleev_number": [9, 96, 1], "includesElement__molar_heat_capacity": [28.07, 25.23, 24.86], "includesElement__period": [6, 5, 2], "includesElement__pettifor_number": [14, 88, 12], "includesElement__specific_heat_capacity": [0.204, 0.207, 3.582], "includesElement__vdw_radius": [268.0, 206.0, 182.0], "includesElement__vdw_radius_alvarez": [303.0, 247.0, 212.0], "includesElement__vdw_radius_mm3": [307.0, 252.0, 255.0], "includesElement__vdw_radius_uff": [370.3, 442.0, 245.1], "includesElement__abundance_sea": [0.013, 0.00024, 0.18], "includesElement__atomic_weight_uncertainty": [0.007, 0.001], "includesElement__c6_gb": [5540.0, 504.0, 1410.0], "includesElement__covalent_radius_bragg": [210.0, 140.0, 150.0], "includesElement__electronegativity_allen": [5.211, 11.74, 5.392], "includesElement__en_allen": [5.211, 11.74, 5.392], "includesElement__metallic_radius": [198.0, 139.0, 123.0], "includesElement__metallic_radius_c12": [222.0, 166.0, 155.0], "includesElement__vdw_radius_batsanov": [270.0, 220.0], "includesElement__vdw_radius_truhlar": [268.0, 206.0], "includesElement__thermal_conductivity": [24.43, 84.8], "includesElement__c6": [492.0, 1392.0], "includesElement__vdw_radius_dreiding": [435.0], "includesElement__vdw_radius_bondi": [181.0], "formula": ["Ba2Li2Sb2"], "spacegroup": ["194"], "thermalConductivity": [2.73232], "icsd": ["280574"], "band_gap": [0.6947], "density": [4.55296], "density_atomic": [32.34159], "deprecated": [false], "efermi": [2.948913], "energy_above_hull": [0.0], "energy_per_atom": [-3.661214], "formation_energy_per_atom": [-1.008914], "homogeneous_poisson": [0.192], "is_gap_direct": [false], "is_magnetic": [false], "is_metal": [false], "is_stable": [true], "nelements": [3], "nsites": [6], "num_magnetic_sites": [0], "num_unique_magnetic_sites": [0], "theoretical": [false], "total_magnetization": [0.0], "total_magnetization_normalized_formula_units": [0.0], "total_magnetization_normalized_vol": [0.0], "uncorrected_energy_per_atom": [-19.30646], "universal_anisotropy": [0.274], "volume": [194.0495], "cbm": [3.5136], "e_electronic": [10.44235], "e_ionic": [13.54468], "e_total": [23.98703], "equilibrium_reaction_energy_per_atom": [-0.08989543], "n": [3.231463], "vbm": [2.8189]}