{"includesElement": ["", "In", "U"], "includesElement___series_id": [7, 10], "includesElement__abundance_crust": [0.25, 2.7], "includesElement__atomic_number": [49, 92], "includesElement__atomic_radius": [155.0, 175.0], "includesElement__atomic_radius_rahm": [246.0, 283.0], "includesElement__atomic_volume": [15.7, 12.5], "includesElement__atomic_weight": [114.818, 238.0289], "includesElement__covalent_radius_cordero": [142.0, 196.0], "includesElement__covalent_radius_pyykko": [142.0, 170.0], "includesElement__covalent_radius_pyykko_double": [136.0, 134.0], "includesElement__covalent_radius_pyykko_triple": [146.0, 118.0], "includesElement__density": [7.31, 19.1], "includesElement__dipole_polarizability": [65.0, 129.0], "includesElement__dipole_polarizability_unc": [4.0, 17.0], "includesElement__discovery_year": [1863, 1789], "includesElement__electron_affinity": [0.3], "includesElement__electronegativity_allred-rochow": [0.0002479667, 0.0001038062], "includesElement__electronegativity_cottrell-sutton": [0.1876467, 0.1328422], "includesElement__electronegativity_ghosh": [0.16423, 0.13207], "includesElement__electronegativity_gordy": [0.03521127, 0.01764706], "includesElement__electronegativity_mulliken": [3.043178, 3.097025], "includesElement__electronegativity_nagle": [0.3587038, 0.3596283], "includesElement__electronegativity_pauling": [1.78, 1.7], "includesElement__electronegativity_sanderson": [0.7172747, 0.618118], "includesElement__en_ghosh": [0.16423, 0.13207], "includesElement__en_pauling": [1.78, 1.7], "includesElement__evaporation_heat": [225.1, 417.0], "includesElement__fusion_heat": [3.24, 12.6], "includesElement__glawe_number": [80, 36], "includesElement__group_id": [13], "includesElement__heat_of_formation": [243.0, 533.0], "includesElement__is_radioactive": [false, true], "includesElement__lattice_constant": [4.59, 2.85], "includesElement__mendeleev_number": [84, 20], "includesElement__molar_heat_capacity": [26.74, 27.665], "includesElement__period": [5, 7], "includesElement__pettifor_number": [79, 45], "includesElement__specific_heat_capacity": [0.233, 0.116], "includesElement__vdw_radius": [193.0, 241.0], "includesElement__vdw_radius_alvarez": [243.0, 271.0], "includesElement__vdw_radius_mm3": [264.0, 252.0], "includesElement__vdw_radius_uff": [446.3, 339.5], "includesElement__abundance_sea": [0.02, 0.0032], "includesElement__atomic_weight_uncertainty": [0.001, 3e-05], "includesElement__c6_gb": [643.0], "includesElement__electronegativity_allen": [9.793], "includesElement__en_allen": [9.793], "includesElement__metallic_radius": [142.0], "includesElement__metallic_radius_c12": [158.0], "includesElement__thermal_conductivity": [81.8, 27.5], "includesElement__vdw_radius_batsanov": [220.0, 230.0], "includesElement__c6": [779.0], "includesElement__vdw_radius_dreiding": [459.0], "includesElement__vdw_radius_bondi": [193.0], "includesElement__gas_basicity": [973.2], "includesElement__proton_affinity": [995.2], "formula": ["In3U1"], "spacegroup": ["221"], "thermalConductivity": [2.01203], "icsd": ["59565"], "band_gap": [0.0], "density": [9.649761], "density_atomic": [25.05854], "deprecated": [false], "efermi": [8.768145], "energy_above_hull": [0.0], "energy_per_atom": [-37.22199], "formation_energy_per_atom": [-0.3025366], "homogeneous_poisson": [0.227], "is_gap_direct": [false], "is_magnetic": [true], "is_metal": [true], "is_stable": [true], "nelements": [2], "nsites": [4], "num_magnetic_sites": [1], "num_unique_magnetic_sites": [1], "theoretical": [false], "total_magnetization": [2.774255], "total_magnetization_normalized_formula_units": [2.774255], "total_magnetization_normalized_vol": [0.02767774], "uncorrected_energy_per_atom": [-37.22199], "universal_anisotropy": [0.186], "volume": [100.2342], "equilibrium_reaction_energy_per_atom": [-0.3025366]}