{"includesElement": ["", "Si", "Ti", "Ho"], "includesElement___series_id": [5, 8, 9], "includesElement__abundance_crust": [282000.0, 5650.0, 1.3], "includesElement__atomic_number": [14, 22, 67], "includesElement__atomic_radius": [110.0, 140.0, 175.0], "includesElement__atomic_radius_rahm": [232.0, 257.0, 273.0], "includesElement__atomic_volume": [12.1, 10.6, 18.7], "includesElement__atomic_weight": [28.085, 47.867, 164.9303], "includesElement__covalent_radius_cordero": [111.0, 160.0, 192.0], "includesElement__covalent_radius_pyykko": [116.0, 136.0, 166.0], "includesElement__covalent_radius_pyykko_double": [107.0, 117.0, 133.0], "includesElement__covalent_radius_pyykko_triple": [102.0, 108.0], "includesElement__density": [2.3296, 4.506, 8.8], "includesElement__dipole_polarizability": [37.3, 100.0, 156.0], "includesElement__dipole_polarizability_unc": [0.7, 10.0], "includesElement__discovery_year": [1824, 1791, 1878], "includesElement__electron_affinity": [1.389521, 0.079], "includesElement__electronegativity_allred-rochow": [0.0003084126, 0.0001703071, 0.0001034258], "includesElement__electronegativity_cottrell-sutton": [0.1891451, 0.1521899, 0.1310293], "includesElement__electronegativity_ghosh": [0.178503, 0.1233637, 0.207795], "includesElement__electronegativity_gordy": [0.03577586, 0.02316176, 0.01716867], "includesElement__electronegativity_mulliken": [4.770602, 3.45356, 3.01075], "includesElement__electronegativity_nagle": [0.4750986, 0.3419952, 0.4367902], "includesElement__electronegativity_pauling": [1.9, 1.54, 1.23], "includesElement__electronegativity_sanderson": [0.3468158, 0.4055462, 0.5434919], "includesElement__en_ghosh": [0.178503, 0.1233637, 0.207795], "includesElement__en_pauling": [1.9, 1.54, 1.23], "includesElement__evaporation_heat": [383.0, 422.6, 301.0], "includesElement__fusion_heat": [50.6, 18.8], "includesElement__glawe_number": [85, 51, 23], "includesElement__group_id": [14, 4], "includesElement__heat_of_formation": [450.0, 473.0, 300.6], "includesElement__is_radioactive": [false], "includesElement__lattice_constant": [5.43, 2.95, 3.58], "includesElement__mendeleev_number": [88, 43, 33], "includesElement__molar_heat_capacity": [19.99, 25.06, 27.15], "includesElement__period": [3, 4, 6], "includesElement__pettifor_number": [85, 51, 24], "includesElement__specific_heat_capacity": [0.712, 0.523, 0.165], "includesElement__vdw_radius": [210.0, 211.0, 230.0], "includesElement__vdw_radius_alvarez": [219.0, 246.0, 281.0], "includesElement__vdw_radius_mm3": [229.0, 239.0, 267.0], "includesElement__vdw_radius_uff": [429.5, 317.5, 340.9], "includesElement__abundance_sea": [2.2, 0.001, 2.2e-07], "includesElement__c6_gb": [308.0, 1200.0, 2280.0], "includesElement__covalent_radius_bragg": [117.0, 140.0], "includesElement__electronegativity_allen": [11.33, 8.17], "includesElement__en_allen": [11.33, 8.17], "includesElement__metallic_radius": [117.0, 132.0], "includesElement__metallic_radius_c12": [138.0, 147.0], "includesElement__thermal_conductivity": [149.0, 21.9], "includesElement__vdw_radius_batsanov": [210.0, 215.0], "includesElement__c6": [305.0, 1044.0], "includesElement__vdw_radius_dreiding": [427.0], "includesElement__gas_basicity": [814.1, 853.7], "includesElement__proton_affinity": [837.0, 876.0], "includesElement__vdw_radius_bondi": [210.0], "includesElement__atomic_weight_uncertainty": [0.001, 2e-05], "includesElement__is_monoisotopic": [true], "formula": ["Ho2Si2Ti2"], "spacegroup": ["129"], "thermalConductivity": [8.15451], "icsd": ["88117"], "band_gap": [0.0], "density": [6.565197], "density_atomic": [20.30888], "deprecated": [false], "efermi": [5.09585], "energy_above_hull": [0.0], "energy_per_atom": [-18.93556], "formation_energy_per_atom": [-0.7379376], "is_gap_direct": [false], "is_magnetic": [true], "is_metal": [true], "is_stable": [true], "nelements": [3], "nsites": [6], "num_magnetic_sites": [4], "num_unique_magnetic_sites": [2], "theoretical": [false], "total_magnetization": [0.9358323], "total_magnetization_normalized_formula_units": [0.4679161], "total_magnetization_normalized_vol": [0.007679994], "uncorrected_energy_per_atom": [-18.93556], "volume": [121.8533], "equilibrium_reaction_energy_per_atom": [-0.03924727]}