{"includesElement": ["", "Ag", "In", "Te"], "includesElement___series_id": [8, 7, 5], "includesElement__abundance_crust": [0.075, 0.25, 0.001], "includesElement__atomic_number": [47, 49, 52], "includesElement__atomic_radius": [160.0, 155.0, 140.0], "includesElement__atomic_radius_rahm": [225.0, 246.0, 242.0], "includesElement__atomic_volume": [10.3, 15.7, 20.5], "includesElement__atomic_weight": [107.8682, 114.818, 127.6], "includesElement__covalent_radius_cordero": [145.0, 142.0, 138.0], "includesElement__covalent_radius_pyykko": [128.0, 142.0, 136.0], "includesElement__covalent_radius_pyykko_double": [139.0, 136.0, 128.0], "includesElement__covalent_radius_pyykko_triple": [137.0, 146.0, 121.0], "includesElement__density": [10.5, 7.31, 6.232], "includesElement__dipole_polarizability": [55.0, 65.0, 38.0], "includesElement__dipole_polarizability_unc": [8.0, 4.0], "includesElement__electron_affinity": [1.302, 0.3, 1.970876], "includesElement__electronegativity_allred-rochow": [0.0002258301, 0.0002479667, 0.0003757569], "includesElement__electronegativity_cottrell-sutton": [0.1700184, 0.1876467, 0.2260596], "includesElement__electronegativity_ghosh": [0.1472165, 0.16423, 0.2056992], "includesElement__electronegativity_gordy": [0.02890625, 0.03521127, 0.05110294], "includesElement__electronegativity_mulliken": [4.439117, 3.043178, 5.490268], "includesElement__electronegativity_nagle": [0.5848035, 0.3587038, 0.5404919], "includesElement__electronegativity_pauling": [1.93, 1.78, 2.1], "includesElement__electronegativity_sanderson": [0.9437955, 0.7172747, 0.8622506], "includesElement__en_ghosh": [0.1472165, 0.16423, 0.2056992], "includesElement__en_pauling": [1.93, 1.78, 2.1], "includesElement__evaporation_heat": [254.1, 225.1, 49.8], "includesElement__fusion_heat": [11.95, 3.24, 17.91], "includesElement__glawe_number": [67, 80, 94], "includesElement__group_id": [11, 13, 16], "includesElement__heat_of_formation": [284.9, 243.0, 196.6], "includesElement__is_radioactive": [false], "includesElement__lattice_constant": [4.09, 4.59, 4.45], "includesElement__mendeleev_number": [72, 84, 102], "includesElement__molar_heat_capacity": [25.35, 26.74, 25.73], "includesElement__period": [5], "includesElement__pettifor_number": [71, 79, 92], "includesElement__specific_heat_capacity": [0.235, 0.233, 0.202], "includesElement__vdw_radius": [211.0, 193.0, 206.0], "includesElement__vdw_radius_alvarez": [253.0, 243.0, 199.0], "includesElement__vdw_radius_mm3": [243.0, 264.0, 244.0], "includesElement__vdw_radius_uff": [314.8, 446.3, 447.0], "includesElement__abundance_sea": [4e-05, 0.02], "includesElement__atomic_weight_uncertainty": [0.0002, 0.001, 0.03], "includesElement__c6_gb": [341.0, 643.0, 471.0], "includesElement__covalent_radius_bragg": [177.0, 133.0], "includesElement__electronegativity_allen": [11.05, 9.793, 12.76], "includesElement__en_allen": [11.05, 9.793, 12.76], "includesElement__metallic_radius": [134.0, 142.0, 137.0], "includesElement__metallic_radius_c12": [144.0, 158.0, 160.0], "includesElement__thermal_conductivity": [429.0, 81.8, 14.3], "includesElement__vdw_radius_batsanov": [210.0, 220.0], "includesElement__discovery_year": [1863, 1782], "includesElement__c6": [779.0, 445.0], "includesElement__vdw_radius_dreiding": [459.0, 423.0], "includesElement__vdw_radius_bondi": [193.0, 206.0], "formula": ["Ag1In5Te8"], "spacegroup": ["111"], "thermalConductivity": [0.817938], "icsd": ["151871"], "band_gap": [0.2869], "density": [5.597203], "density_atomic": [36.08303], "deprecated": [false], "efermi": [4.033423], "energy_above_hull": [0.004139909], "energy_per_atom": [-24.54562], "formation_energy_per_atom": [-0.4322945], "is_gap_direct": [false], "is_magnetic": [false], "is_metal": [false], "is_stable": [false], "nelements": [3], "nsites": [14], "num_magnetic_sites": [0], "num_unique_magnetic_sites": [0], "theoretical": [false], "total_magnetization": [0.0], "total_magnetization_normalized_formula_units": [0.0], "total_magnetization_normalized_vol": [0.0], "uncorrected_energy_per_atom": [-24.54562], "volume": [505.1624], "cbm": [4.2688], "vbm": [3.9819]}