{"includesElement": ["", "O", "K", "U"], "includesElement___series_id": [1, 3, 10], "includesElement__abundance_crust": [461000.0, 20900.0, 2.7], "includesElement__atomic_number": [8, 19, 92], "includesElement__atomic_radius": [60.0, 220.0, 175.0], "includesElement__atomic_radius_rahm": [171.0, 234.0, 283.0], "includesElement__atomic_volume": [14.0, 45.3, 12.5], "includesElement__atomic_weight": [15.999, 39.0983, 238.0289], "includesElement__covalent_radius_cordero": [66.0, 203.0, 196.0], "includesElement__covalent_radius_pyykko": [63.0, 196.0, 170.0], "includesElement__covalent_radius_pyykko_double": [57.0, 193.0, 134.0], "includesElement__covalent_radius_pyykko_triple": [53.0, 118.0], "includesElement__density": [0.001308, 0.89, 19.1], "includesElement__dipole_polarizability": [5.3, 289.7, 129.0], "includesElement__dipole_polarizability_unc": [0.2, 0.3, 17.0], "includesElement__discovery_year": [1774, 1807, 1789], "includesElement__electron_affinity": [1.461113, 0.50147], "includesElement__electronegativity_allred-rochow": [0.001146384, 5.726781e-05, 0.0001038062], "includesElement__electronegativity_cottrell-sutton": [0.2687419, 0.1059457, 0.1328422], "includesElement__electronegativity_ghosh": [0.304575, 0.0981896, 0.13207], "includesElement__electronegativity_gordy": [0.07222222, 0.01122449, 0.01764706], "includesElement__electronegativity_mulliken": [7.539584, 2.421067, 3.097025], "includesElement__electronegativity_nagle": [1.042218, 0.1511299, 0.3596283], "includesElement__electronegativity_pauling": [3.44, 0.82, 1.7], "includesElement__electronegativity_sanderson": [0.9416494, 0.1218383, 0.618118], "includesElement__en_ghosh": [0.304575, 0.0981896, 0.13207], "includesElement__en_pauling": [3.44, 0.82, 1.7], "includesElement__glawe_number": [97, 10, 36], "includesElement__group_id": [16, 1], "includesElement__heat_of_formation": [249.229, 89.0, 533.0], "includesElement__is_radioactive": [false, true], "includesElement__lattice_constant": [6.83, 5.23, 2.85], "includesElement__mendeleev_number": [99, 3, 20], "includesElement__molar_heat_capacity": [29.378, 29.6, 27.665], "includesElement__period": [2, 4, 7], "includesElement__pettifor_number": [101, 10, 45], "includesElement__specific_heat_capacity": [0.918, 0.757, 0.116], "includesElement__vdw_radius": [152.0, 275.0, 241.0], "includesElement__vdw_radius_alvarez": [150.0, 273.0, 271.0], "includesElement__vdw_radius_mm3": [182.0, 309.0, 252.0], "includesElement__vdw_radius_uff": [350.0, 381.2, 339.5], "includesElement__abundance_sea": [857000.0, 399.0, 0.0032], "includesElement__c6_gb": [16.7, 3910.0], "includesElement__covalent_radius_bragg": [65.0, 207.0], "includesElement__electronegativity_allen": [21.36, 4.34], "includesElement__en_allen": [21.36, 4.34], "includesElement__thermal_conductivity": [0.027, 79.0, 27.5], "includesElement__vdw_radius_batsanov": [155.0, 280.0, 230.0], "includesElement__c6": [15.6, 3923.0], "includesElement__vdw_radius_dreiding": [340.46], "includesElement__gas_basicity": [459.6, 973.2], "includesElement__proton_affinity": [485.2, 995.2], "includesElement__vdw_radius_bondi": [152.0, 275.0], "includesElement__vdw_radius_rt": [158.0], "includesElement__evaporation_heat": [2.33, 417.0], "includesElement__fusion_heat": [102.5, 12.6], "includesElement__atomic_weight_uncertainty": [0.0001, 3e-05], "includesElement__metallic_radius": [203.0], "includesElement__metallic_radius_c12": [235.0], "formula": ["K1O3U1"], "spacegroup": ["221"], "thermalConductivity": [10.4189], "icsd": ["44521"], "band_gap": [0.4454], "density": [6.795779], "density_atomic": [15.88879], "deprecated": [false], "efermi": [4.867873], "energy_above_hull": [0.0], "energy_per_atom": [-8.788442], "formation_energy_per_atom": [-3.332528], "homogeneous_poisson": [0.284], "is_gap_direct": [false], "is_magnetic": [true], "is_metal": [false], "is_stable": [true], "nelements": [3], "nsites": [5], "num_magnetic_sites": [1], "num_unique_magnetic_sites": [1], "theoretical": [false], "total_magnetization": [1.0], "total_magnetization_normalized_formula_units": [1.0], "total_magnetization_normalized_vol": [0.01258749], "uncorrected_energy_per_atom": [-24.03027], "universal_anisotropy": [0.781], "volume": [79.44393], "cbm": [5.2614], "equilibrium_reaction_energy_per_atom": [-0.06801509], "vbm": [4.816]}