{"includesElement": ["", "As", "Zr"], "includesElement___series_id": [5, 8], "includesElement__abundance_crust": [1.8, 165.0], "includesElement__atomic_number": [33, 40], "includesElement__atomic_radius": [115.0, 155.0], "includesElement__atomic_radius_rahm": [231.0, 269.0], "includesElement__atomic_volume": [13.1, 14.1], "includesElement__atomic_weight": [74.92159, 91.224], "includesElement__covalent_radius_cordero": [119.0, 175.0], "includesElement__covalent_radius_pyykko": [121.0, 154.0], "includesElement__covalent_radius_pyykko_double": [114.0, 127.0], "includesElement__covalent_radius_pyykko_triple": [106.0, 121.0], "includesElement__density": [5.75, 6.52], "includesElement__dipole_polarizability": [30.0, 112.0], "includesElement__dipole_polarizability_unc": [1.0, 13.0], "includesElement__electron_affinity": [0.804, 0.426], "includesElement__electronegativity_allred-rochow": [0.0004302985, 0.0001328217], "includesElement__electronegativity_cottrell-sutton": [0.22818, 0.1430194], "includesElement__electronegativity_ghosh": [0.2068208, 0.1248887], "includesElement__electronegativity_gordy": [0.05206612, 0.02045455], "includesElement__electronegativity_mulliken": [5.2965, 3.52995], "includesElement__electronegativity_nagle": [0.5503212, 0.3293169], "includesElement__electronegativity_pauling": [2.18, 1.33], "includesElement__electronegativity_sanderson": [0.8253373, 0.4744467], "includesElement__en_ghosh": [0.2068208, 0.1248887], "includesElement__en_pauling": [2.18, 1.33], "includesElement__evaporation_heat": [32.4, 567.0], "includesElement__glawe_number": [90, 49], "includesElement__group_id": [15, 4], "includesElement__heat_of_formation": [302.5, 610.0], "includesElement__is_radioactive": [false], "includesElement__lattice_constant": [4.13, 3.23], "includesElement__mendeleev_number": [95, 44], "includesElement__molar_heat_capacity": [24.64, 25.36], "includesElement__period": [4, 5], "includesElement__pettifor_number": [89, 49], "includesElement__specific_heat_capacity": [0.329, 0.278], "includesElement__vdw_radius": [185.0, 223.0], "includesElement__vdw_radius_alvarez": [188.0, 252.0], "includesElement__vdw_radius_mm3": [236.0, 254.0], "includesElement__vdw_radius_uff": [423.0, 312.4], "includesElement__abundance_sea": [0.0037, 3e-05], "includesElement__atomic_weight_uncertainty": [6e-06, 0.002], "includesElement__c6_gb": [260.0, 1360.0], "includesElement__covalent_radius_bragg": [126.0], "includesElement__electronegativity_allen": [13.08, 7.808], "includesElement__en_allen": [13.08, 7.808], "includesElement__metallic_radius": [121.0, 145.0], "includesElement__metallic_radius_c12": [148.0, 160.0], "includesElement__vdw_radius_batsanov": [205.0, 230.0], "includesElement__c6": [246.0], "includesElement__is_monoisotopic": [true], "includesElement__vdw_radius_dreiding": [415.0], "includesElement__vdw_radius_bondi": [185.0], "includesElement__discovery_year": [1789], "includesElement__fusion_heat": [19.2], "includesElement__thermal_conductivity": [22.7], "formula": ["As1Zr1"], "spacegroup": ["225"], "thermalConductivity": [14.9441], "icsd": ["44092"], "band_gap": [0.0], "density": [6.782473], "density_atomic": [20.33854], "deprecated": [false], "efermi": [5.780339], "energy_above_hull": [0.06273762], "energy_per_atom": [-7.682951], "formation_energy_per_atom": [-1.07404], "homogeneous_poisson": [0.309], "is_gap_direct": [false], "is_magnetic": [false], "is_metal": [true], "is_stable": [false], "nelements": [2], "nsites": [2], "num_magnetic_sites": [0], "num_unique_magnetic_sites": [0], "theoretical": [false], "total_magnetization": [1e-07], "total_magnetization_normalized_formula_units": [1e-07], "total_magnetization_normalized_vol": [2.458386e-09], "uncorrected_energy_per_atom": [-20.00254], "universal_anisotropy": [2.525], "volume": [40.67709]}