{"includesElement": ["", "Al", "Tc"], "includesElement___series_id": [7, 8], "includesElement__abundance_crust": [82300.0], "includesElement__atomic_number": [13, 43], "includesElement__atomic_radius": [125.0, 135.0], "includesElement__atomic_radius_rahm": [239.0, 252.0], "includesElement__atomic_volume": [10.0, 8.5], "includesElement__atomic_weight": [26.98154, 97.90721], "includesElement__covalent_radius_cordero": [121.0, 147.0], "includesElement__covalent_radius_pyykko": [126.0, 128.0], "includesElement__covalent_radius_pyykko_double": [113.0, 120.0], "includesElement__covalent_radius_pyykko_triple": [111.0, 110.0], "includesElement__density": [2.7, 11.0], "includesElement__dipole_polarizability": [57.8, 79.0], "includesElement__dipole_polarizability_unc": [1.0, 10.0], "includesElement__discovery_year": [1825, 1937], "includesElement__electron_affinity": [0.43283, 0.55], "includesElement__electronegativity_allred-rochow": [0.0002204586, 0.0002197266], "includesElement__electronegativity_cottrell-sutton": [0.1666667, 0.1677051], "includesElement__electronegativity_ghosh": [0.150078, 0.1344592], "includesElement__electronegativity_gordy": [0.02777778, 0.028125], "includesElement__electronegativity_mulliken": [3.209299, 3.83469], "includesElement__electronegativity_nagle": [0.3730192, 0.4458174], "includesElement__electronegativity_pauling": [1.61, 2.1], "includesElement__electronegativity_sanderson": [0.2360927, 0.8753613], "includesElement__en_ghosh": [0.150078, 0.1344592], "includesElement__en_pauling": [1.61, 2.1], "includesElement__evaporation_heat": [284.1, 585.0], "includesElement__fusion_heat": [10.75, 23.8], "includesElement__glawe_number": [78, 59], "includesElement__group_id": [13, 7], "includesElement__heat_of_formation": [330.9, 678.0], "includesElement__is_radioactive": [false, true], "includesElement__lattice_constant": [4.05, 2.74], "includesElement__mendeleev_number": [82, 56], "includesElement__molar_heat_capacity": [24.2], "includesElement__period": [3, 5], "includesElement__pettifor_number": [80, 58], "includesElement__specific_heat_capacity": [0.897], "includesElement__vdw_radius": [184.0, 216.0], "includesElement__vdw_radius_alvarez": [225.0, 244.0], "includesElement__vdw_radius_mm3": [236.0], "includesElement__vdw_radius_uff": [449.9, 299.8], "includesElement__abundance_sea": [0.002], "includesElement__atomic_weight_uncertainty": [7e-07, 3e-05], "includesElement__c6_gb": [520.0, 939.0], "includesElement__covalent_radius_bragg": [135.0], "includesElement__electronegativity_allen": [9.539, 8.94], "includesElement__en_allen": [9.539, 8.94], "includesElement__metallic_radius": [125.0, 127.0], "includesElement__metallic_radius_c12": [143.0, 136.0], "includesElement__thermal_conductivity": [237.0, 50.6], "includesElement__vdw_radius_batsanov": [210.0, 205.0], "includesElement__c6": [528.0], "includesElement__is_monoisotopic": [true], "includesElement__vdw_radius_dreiding": [439.0], "includesElement__vdw_radius_truhlar": [184.0], "formula": ["Al12Tc2"], "spacegroup": ["63"], "thermalConductivity": [7.34628], "icsd": ["58177"], "band_gap": [0.0], "density": [3.885918], "density_atomic": [15.86521], "deprecated": [false], "efermi": [7.837681], "energy_above_hull": [0.01602836], "energy_per_atom": [-9.766013], "formation_energy_per_atom": [-0.2864059], "homogeneous_poisson": [0.235], "is_gap_direct": [false], "is_magnetic": [false], "is_metal": [true], "is_stable": [false], "nelements": [2], "nsites": [14], "num_magnetic_sites": [0], "num_unique_magnetic_sites": [0], "theoretical": [false], "total_magnetization": [9e-07], "total_magnetization_normalized_formula_units": [4.5e-07], "total_magnetization_normalized_vol": [4.051993e-09], "uncorrected_energy_per_atom": [-9.766013], "universal_anisotropy": [0.176], "volume": [222.1129]}