{"includesElement": ["", "Ni", "Ge", "C"], "includesElement___series_id": [8, 5, 1], "includesElement__abundance_crust": [84.0, 1.5, 200.0], "includesElement__atomic_number": [28, 32, 6], "includesElement__atomic_radius": [135.0, 125.0, 70.0], "includesElement__atomic_radius_rahm": [229.0, 234.0, 190.0], "includesElement__atomic_volume": [6.6, 13.6, 5.3], "includesElement__atomic_weight": [58.6934, 72.63, 12.011], "includesElement__covalent_radius_cordero": [124.0, 120.0, 73.0], "includesElement__covalent_radius_pyykko": [110.0, 121.0, 75.0], "includesElement__covalent_radius_pyykko_double": [101.0, 111.0, 67.0], "includesElement__covalent_radius_pyykko_triple": [101.0, 114.0, 60.0], "includesElement__density": [8.9, 5.3234, 2.2], "includesElement__dipole_polarizability": [49.0, 40.0, 11.3], "includesElement__dipole_polarizability_unc": [3.0, 1.0, 0.2], "includesElement__discovery_year": [1751, 1886], "includesElement__electron_affinity": [1.156, 1.232712, 1.262119], "includesElement__electronegativity_allred-rochow": [0.0003347107, 0.0003859026, 0.0005777778], "includesElement__electronegativity_cottrell-sutton": [0.1918806, 0.2160884, 0.2081666], "includesElement__electronegativity_ghosh": [0.1472068, 0.1895892, 0.224776], "includesElement__electronegativity_gordy": [0.03681818, 0.04669421, 0.04333333], "includesElement__electronegativity_mulliken": [4.397939, 4.566073, 6.261208], "includesElement__electronegativity_nagle": [0.588755, 0.4641589, 0.7073926], "includesElement__electronegativity_pauling": [1.91, 2.01, 2.55], "includesElement__electronegativity_sanderson": [0.937704, 0.8001471, 0.427525], "includesElement__en_ghosh": [0.1472068, 0.1895892, 0.224776], "includesElement__en_pauling": [1.91, 2.01, 2.55], "includesElement__evaporation_heat": [378.6, 328.0], "includesElement__fusion_heat": [17.61, 36.8], "includesElement__glawe_number": [69, 84, 87], "includesElement__group_id": [10, 14], "includesElement__heat_of_formation": [430.1, 372.0, 716.87], "includesElement__is_radioactive": [false], "includesElement__lattice_constant": [3.52, 5.66, 3.57], "includesElement__mendeleev_number": [67, 89, 87], "includesElement__molar_heat_capacity": [26.07, 23.222, 8.517], "includesElement__period": [4, 2], "includesElement__pettifor_number": [67, 84, 95], "includesElement__specific_heat_capacity": [0.444, 0.32, 0.709], "includesElement__vdw_radius": [197.0, 211.0, 170.0], "includesElement__vdw_radius_alvarez": [240.0, 229.0, 177.0], "includesElement__vdw_radius_mm3": [222.0, 244.0, 204.0], "includesElement__vdw_radius_uff": [283.4, 428.0, 385.1], "includesElement__abundance_sea": [0.00056, 5e-05, 28.0], "includesElement__atomic_weight_uncertainty": [0.0004, 0.008], "includesElement__c6_gb": [393.0, 365.0, 47.9], "includesElement__covalent_radius_bragg": [135.0, 77.0], "includesElement__electronegativity_allen": [11.13, 11.8, 15.05], "includesElement__en_allen": [11.13, 11.8, 15.05], "includesElement__metallic_radius": [115.0, 124.0], "includesElement__metallic_radius_c12": [124.0, 144.0, 86.0], "includesElement__thermal_conductivity": [90.9, 60.2, 1.59], "includesElement__vdw_radius_batsanov": [200.0, 210.0, 170.0], "includesElement__c6": [373.0, 354.0, 46.6], "includesElement__gas_basicity": [714.1], "includesElement__proton_affinity": [737.0], "includesElement__vdw_radius_dreiding": [427.0, 389.83], "includesElement__vdw_radius_truhlar": [211.0], "includesElement__vdw_radius_bondi": [170.0], "includesElement__vdw_radius_rt": [177.0], "formula": ["C1Ge1Ni3"], "spacegroup": ["221"], "thermalConductivity": [4.30191], "icsd": ["77001"], "band_gap": [0.0], "density": [7.836249], "density_atomic": [11.05003], "deprecated": [false], "efermi": [8.278463], "energy_above_hull": [0.3200863], "energy_per_atom": [-6.150356], "formation_energy_per_atom": [0.08806476], "homogeneous_poisson": [0.397], "is_gap_direct": [false], "is_magnetic": [false], "is_metal": [true], "is_stable": [false], "nelements": [3], "nsites": [5], "num_magnetic_sites": [0], "num_unique_magnetic_sites": [0], "theoretical": [false], "total_magnetization": [0.0028379], "total_magnetization_normalized_formula_units": [0.0028379], "total_magnetization_normalized_vol": [5.136458e-05], "uncorrected_energy_per_atom": [-6.150356], "universal_anisotropy": [3.145], "volume": [55.25014]}