{"includesElement": ["", "P", "S", "Th"], "includesElement___series_id": [1, 10], "includesElement__abundance_crust": [1050.0, 350.0, 9.6], "includesElement__atomic_number": [15, 16, 90], "includesElement__atomic_radius": [100.0, 180.0], "includesElement__atomic_radius_rahm": [223.0, 214.0, 288.0], "includesElement__atomic_volume": [17.0, 15.5, 19.8], "includesElement__atomic_weight": [30.97376, 32.06, 232.0377], "includesElement__covalent_radius_cordero": [107.0, 105.0, 206.0], "includesElement__covalent_radius_pyykko": [111.0, 103.0, 175.0], "includesElement__covalent_radius_pyykko_double": [102.0, 94.0, 143.0], "includesElement__covalent_radius_pyykko_triple": [94.0, 95.0, 136.0], "includesElement__density": [1.823, 2.07, 11.7], "includesElement__dipole_polarizability": [25.0, 19.4, 217.0], "includesElement__dipole_polarizability_unc": [1.0, 0.1, 54.0], "includesElement__discovery_year": [1669, 1828], "includesElement__electron_affinity": [0.746607, 2.077104], "includesElement__electronegativity_allred-rochow": [0.0003895788, 0.0005137148, 0.0001028571], "includesElement__electronegativity_cottrell-sutton": [0.2079501, 0.2300274, 0.1341641], "includesElement__electronegativity_ghosh": [0.206931, 0.23596, 0.10277], "includesElement__electronegativity_gordy": [0.04324324, 0.05291262, 0.018], "includesElement__electronegativity_mulliken": [5.616646, 6.218557, 3.15335], "includesElement__electronegativity_nagle": [0.5848035, 0.6762644, 0.2641598], "includesElement__electronegativity_pauling": [2.19, 2.58, 1.3], "includesElement__electronegativity_sanderson": [0.4510269, 0.6397251, 0.5557019], "includesElement__en_ghosh": [0.206931, 0.23596, 0.10277], "includesElement__en_pauling": [2.19, 2.58, 1.3], "includesElement__evaporation_heat": [49.8, 10.5, 513.7], "includesElement__fusion_heat": [2.51, 1.23, 16.11], "includesElement__glawe_number": [89, 96, 34], "includesElement__group_id": [15, 16], "includesElement__heat_of_formation": [316.5, 277.17, 602.0], "includesElement__is_radioactive": [false, true], "includesElement__lattice_constant": [7.17, 10.47, 5.08], "includesElement__mendeleev_number": [94, 100, 16], "includesElement__molar_heat_capacity": [23.824, 22.7, 27.32], "includesElement__period": [3, 7], "includesElement__pettifor_number": [90, 94, 47], "includesElement__specific_heat_capacity": [0.769, 0.708, 0.118], "includesElement__vdw_radius": [180.0, 245.0], "includesElement__vdw_radius_alvarez": [190.0, 189.0, 293.0], "includesElement__vdw_radius_mm3": [222.0, 215.0, 274.0], "includesElement__vdw_radius_uff": [414.7, 403.5, 339.6], "includesElement__abundance_sea": [0.06, 905.0, 1e-06], "includesElement__atomic_weight_uncertainty": [5e-09, 0.0004], "includesElement__c6_gb": [187.0, 140.0], "includesElement__electronegativity_allen": [13.33, 15.31], "includesElement__en_allen": [13.33, 15.31], "includesElement__metallic_radius": [110.0, 104.0], "includesElement__metallic_radius_c12": [128.0, 127.0], "includesElement__vdw_radius_batsanov": [195.0, 180.0, 240.0], "includesElement__c6": [185.0, 134.0], "includesElement__is_monoisotopic": [true], "includesElement__vdw_radius_dreiding": [415.0, 403.0], "includesElement__gas_basicity": [604.8, 640.2], "includesElement__proton_affinity": [626.8, 664.3], "includesElement__vdw_radius_bondi": [180.0], "includesElement__covalent_radius_bragg": [102.0], "includesElement__thermal_conductivity": [0.27], "includesElement__vdw_radius_rt": [181.0], "formula": ["P4S12Th2"], "spacegroup": ["84"], "thermalConductivity": [2.32028], "icsd": ["35299"], "band_gap": [2.448], "density": [3.312996], "density_atomic": [27.08679], "deprecated": [false], "efermi": [1.891164], "energy_above_hull": [0.0], "energy_per_atom": [-16.51758], "formation_energy_per_atom": [-0.9965376], "is_gap_direct": [false], "is_magnetic": [false], "is_metal": [false], "is_stable": [true], "nelements": [3], "nsites": [18], "num_magnetic_sites": [0], "num_unique_magnetic_sites": [0], "theoretical": [false], "total_magnetization": [0.0], "total_magnetization_normalized_formula_units": [0.0], "total_magnetization_normalized_vol": [0.0], "uncorrected_energy_per_atom": [-16.51758], "volume": [487.5622], "cbm": [4.1784], "equilibrium_reaction_energy_per_atom": [-0.08841996], "vbm": [1.7304]}