{"includesElement": ["", "Hf", "H"], "includesElement___series_id": [8, 1], "includesElement__abundance_crust": [3.0, 1400.0], "includesElement__atomic_number": [72, 1], "includesElement__atomic_radius": [155.0, 25.0], "includesElement__atomic_radius_rahm": [264.0, 154.0], "includesElement__atomic_volume": [13.6, 14.1], "includesElement__atomic_weight": [178.49, 1.008], "includesElement__covalent_radius_cordero": [175.0, 31.0], "includesElement__covalent_radius_pyykko": [152.0, 32.0], "includesElement__covalent_radius_pyykko_double": [128.0], "includesElement__covalent_radius_pyykko_triple": [122.0], "includesElement__density": [13.3, 8.2e-05], "includesElement__dipole_polarizability": [103.0, 4.50711], "includesElement__dipole_polarizability_unc": [6.0, 3e-05], "includesElement__discovery_year": [1923, 1766], "includesElement__electron_affinity": [0.014, 0.754195], "includesElement__electronegativity_allred-rochow": [0.00013634, 0.0009765625], "includesElement__electronegativity_cottrell-sutton": [0.1439572, 0.1767767], "includesElement__electronegativity_ghosh": [0.229987, 0.2638], "includesElement__electronegativity_gordy": [0.02072368, 0.03125], "includesElement__electronegativity_mulliken": [3.419535, 7.176315], "includesElement__electronegativity_nagle": [0.3386421, 0.6053882], "includesElement__electronegativity_pauling": [1.3, 2.2], "includesElement__electronegativity_sanderson": [0.7352125, 2.187771], "includesElement__en_ghosh": [0.229987, 0.2638], "includesElement__en_pauling": [1.3, 2.2], "includesElement__evaporation_heat": [575.0, 0.904], "includesElement__fusion_heat": [25.1, 0.117], "includesElement__glawe_number": [50, 103], "includesElement__group_id": [4, 1], "includesElement__heat_of_formation": [618.4, 217.998], "includesElement__is_radioactive": [false], "includesElement__lattice_constant": [3.2, 3.75], "includesElement__mendeleev_number": [45, 105], "includesElement__molar_heat_capacity": [25.73, 28.836], "includesElement__period": [6, 1], "includesElement__pettifor_number": [50, 103], "includesElement__specific_heat_capacity": [0.144, 14.304], "includesElement__vdw_radius": [223.0, 110.0], "includesElement__vdw_radius_alvarez": [263.0, 120.0], "includesElement__vdw_radius_mm3": [253.0, 162.0], "includesElement__vdw_radius_uff": [314.1, 288.6], "includesElement__abundance_sea": [7e-06, 108000.0], "includesElement__atomic_weight_uncertainty": [0.02], "includesElement__c6_gb": [1040.0, 6.51], "includesElement__electronegativity_allen": [6.83, 13.61], "includesElement__en_allen": [6.83, 13.61], "includesElement__metallic_radius": [144.0], "includesElement__metallic_radius_c12": [159.0, 78.0], "includesElement__thermal_conductivity": [23.0, 0.1815], "includesElement__vdw_radius_batsanov": [225.0], "includesElement__c6": [6.499027], "includesElement__vdw_radius_dreiding": [319.5], "includesElement__vdw_radius_bondi": [120.0], "includesElement__vdw_radius_rt": [110.0], "formula": ["H2Hf1"], "spacegroup": ["139"], "thermalConductivity": [2.83377], "icsd": ["24721"], "band_gap": [0.0], "density": [11.66399], "density_atomic": [8.565879], "deprecated": [false], "efermi": [5.393516], "energy_above_hull": [0.0], "energy_per_atom": [-17.89614], "formation_energy_per_atom": [-0.5422605], "homogeneous_poisson": [0.382], "is_gap_direct": [false], "is_magnetic": [false], "is_metal": [true], "is_stable": [true], "nelements": [2], "nsites": [3], "num_magnetic_sites": [0], "num_unique_magnetic_sites": [0], "theoretical": [false], "total_magnetization": [5e-07], "total_magnetization_normalized_formula_units": [5e-07], "total_magnetization_normalized_vol": [1.945704e-08], "uncorrected_energy_per_atom": [-17.89614], "universal_anisotropy": [1.175], "volume": [25.69764], "equilibrium_reaction_energy_per_atom": [-0.5422605]}