{"includesElement": ["", "Pb", "Sc", "C"], "includesElement___series_id": [7, 8, 1], "includesElement__abundance_crust": [14.0, 22.0, 200.0], "includesElement__atomic_number": [82, 21, 6], "includesElement__atomic_radius": [180.0, 160.0, 70.0], "includesElement__atomic_radius_rahm": [249.0, 263.0, 190.0], "includesElement__atomic_volume": [18.3, 15.0, 5.3], "includesElement__atomic_weight": [207.2, 44.95591, 12.011], "includesElement__covalent_radius_cordero": [146.0, 170.0, 73.0], "includesElement__covalent_radius_pyykko": [144.0, 148.0, 75.0], "includesElement__covalent_radius_pyykko_double": [135.0, 116.0, 67.0], "includesElement__covalent_radius_pyykko_triple": [137.0, 114.0, 60.0], "includesElement__density": [11.3, 2.99, 2.2], "includesElement__dipole_polarizability": [47.0, 97.0, 11.3], "includesElement__dipole_polarizability_unc": [3.0, 10.0, 0.2], "includesElement__electron_affinity": [0.3567432, 0.188, 1.262119], "includesElement__electronegativity_allred-rochow": [0.000272473, 0.0001369613, 0.0005777778], "includesElement__electronegativity_cottrell-sutton": [0.1980811, 0.1423737, 0.2081666], "includesElement__electronegativity_ghosh": [0.177911, 0.1193833, 0.224776], "includesElement__electronegativity_gordy": [0.03923611, 0.02027027, 0.04333333], "includesElement__electronegativity_mulliken": [3.886711, 3.374745, 6.261208], "includesElement__electronegativity_nagle": [0.4398663, 0.3138941, 0.7073926], "includesElement__electronegativity_pauling": [1.8, 1.36, 2.55], "includesElement__electronegativity_sanderson": [0.9313226, 0.3038674, 0.427525], "includesElement__en_ghosh": [0.177911, 0.1193833, 0.224776], "includesElement__en_pauling": [1.8, 1.36, 2.55], "includesElement__evaporation_heat": [177.8, 332.7], "includesElement__fusion_heat": [4.77, 15.8], "includesElement__glawe_number": [82, 48, 87], "includesElement__group_id": [14, 3], "includesElement__heat_of_formation": [195.2, 377.8, 716.87], "includesElement__is_radioactive": [false], "includesElement__lattice_constant": [4.95, 3.31, 3.57], "includesElement__mendeleev_number": [91, 11, 87], "includesElement__molar_heat_capacity": [26.84, 25.52, 8.517], "includesElement__period": [6, 4, 2], "includesElement__pettifor_number": [82, 20, 95], "includesElement__specific_heat_capacity": [0.13, 0.568, 0.709], "includesElement__vdw_radius": [202.0, 215.0, 170.0], "includesElement__vdw_radius_alvarez": [260.0, 258.0, 177.0], "includesElement__vdw_radius_mm3": [274.0, 261.0, 204.0], "includesElement__vdw_radius_uff": [429.7, 329.5, 385.1], "includesElement__abundance_sea": [3e-05, 6e-07, 28.0], "includesElement__atomic_weight_uncertainty": [0.1, 5e-06], "includesElement__c6_gb": [534.0, 1570.0, 47.9], "includesElement__electronegativity_allen": [10.97, 7.042, 15.05], "includesElement__en_allen": [10.97, 7.042, 15.05], "includesElement__metallic_radius": [150.0, 144.0], "includesElement__metallic_radius_c12": [170.0, 162.0, 86.0], "includesElement__thermal_conductivity": [35.3, 15.8, 1.59], "includesElement__vdw_radius_batsanov": [230.0, 170.0], "includesElement__vdw_radius_bondi": [202.0, 170.0], "includesElement__discovery_year": [1879], "includesElement__c6": [1383.0, 46.6], "includesElement__is_monoisotopic": [true], "includesElement__gas_basicity": [892.0], "includesElement__proton_affinity": [914.0], "includesElement__covalent_radius_bragg": [77.0], "includesElement__vdw_radius_dreiding": [389.83], "includesElement__vdw_radius_rt": [177.0], "formula": ["C1Pb1Sc3"], "spacegroup": ["221"], "thermalConductivity": [12.1025], "icsd": ["77235"], "band_gap": [0.0], "density": [6.225136], "density_atomic": [18.8899], "deprecated": [false], "efermi": [6.140458], "energy_above_hull": [0.0], "energy_per_atom": [-7.064814], "formation_energy_per_atom": [-0.6770697], "homogeneous_poisson": [0.183], "is_gap_direct": [false], "is_magnetic": [false], "is_metal": [true], "is_stable": [true], "nelements": [3], "nsites": [5], "num_magnetic_sites": [0], "num_unique_magnetic_sites": [0], "theoretical": [false], "total_magnetization": [7.94e-05], "total_magnetization_normalized_formula_units": [7.94e-05], "total_magnetization_normalized_vol": [8.406607e-07], "uncorrected_energy_per_atom": [-20.88287], "universal_anisotropy": [0.028], "volume": [94.44951], "equilibrium_reaction_energy_per_atom": [-0.200873]}