{"includesElement": ["", "N", "In", "Gd"], "includesElement___series_id": [1, 7, 9], "includesElement__abundance_crust": [19.0, 0.25, 6.2], "includesElement__atomic_number": [7, 49, 64], "includesElement__atomic_radius": [65.0, 155.0, 180.0], "includesElement__atomic_radius_rahm": [179.0, 246.0, 277.0], "includesElement__atomic_volume": [17.3, 15.7, 19.9], "includesElement__atomic_weight": [14.007, 114.818, 157.25], "includesElement__covalent_radius_cordero": [71.0, 142.0, 196.0], "includesElement__covalent_radius_pyykko": [71.0, 142.0, 169.0], "includesElement__covalent_radius_pyykko_double": [60.0, 136.0, 135.0], "includesElement__covalent_radius_pyykko_triple": [54.0, 146.0, 132.0], "includesElement__density": [0.001145, 7.31, 7.9], "includesElement__dipole_polarizability": [7.4, 65.0, 158.0], "includesElement__dipole_polarizability_unc": [0.2, 4.0, 20.0], "includesElement__discovery_year": [1772, 1863, 1880], "includesElement__electron_affinity": [-1.4, 0.3], "includesElement__electronegativity_allred-rochow": [0.000773656, 0.0002479667, 0.0001050383], "includesElement__electronegativity_cottrell-sutton": [0.2343706, 0.1876467, 0.1332347], "includesElement__electronegativity_ghosh": [0.26493, 0.16423, 0.1944], "includesElement__electronegativity_gordy": [0.05492958, 0.03521127, 0.01775148], "includesElement__electronegativity_mulliken": [6.567065, 3.043178, 3.074898], "includesElement__electronegativity_nagle": [0.8774979, 0.3587038, 0.3985177], "includesElement__electronegativity_pauling": [3.04, 1.78, 1.2], "includesElement__electronegativity_sanderson": [0.577482, 0.7172747, 0.503386], "includesElement__en_ghosh": [0.26493, 0.16423, 0.1944], "includesElement__en_pauling": [3.04, 1.78, 1.2], "includesElement__glawe_number": [88, 80, 26], "includesElement__group_id": [15, 13], "includesElement__heat_of_formation": [472.44, 243.0, 397.5], "includesElement__is_radioactive": [false], "includesElement__lattice_constant": [4.039, 4.59, 3.64], "includesElement__mendeleev_number": [93, 84, 27], "includesElement__molar_heat_capacity": [29.124, 26.74, 37.03], "includesElement__period": [2, 5, 6], "includesElement__pettifor_number": [100, 79, 27], "includesElement__specific_heat_capacity": [1.04, 0.233, 0.236], "includesElement__vdw_radius": [155.0, 193.0, 234.0], "includesElement__vdw_radius_alvarez": [166.0, 243.0, 283.0], "includesElement__vdw_radius_mm3": [193.0, 264.0, 271.0], "includesElement__vdw_radius_uff": [366.0, 446.3, 336.8], "includesElement__abundance_sea": [0.5, 0.02, 7e-07], "includesElement__c6_gb": [25.7, 643.0, 2340.0], "includesElement__covalent_radius_bragg": [65.0], "includesElement__electronegativity_allen": [18.13, 9.793], "includesElement__en_allen": [18.13, 9.793], "includesElement__metallic_radius_c12": [53.0, 158.0], "includesElement__thermal_conductivity": [0.026, 81.8], "includesElement__vdw_radius_batsanov": [160.0, 220.0], "includesElement__c6": [24.2, 779.0], "includesElement__vdw_radius_dreiding": [366.21, 459.0], "includesElement__gas_basicity": [318.7], "includesElement__proton_affinity": [342.2], "includesElement__vdw_radius_bondi": [155.0, 193.0], "includesElement__vdw_radius_rt": [164.0], "includesElement__evaporation_heat": [225.1, 398.0], "includesElement__fusion_heat": [3.24], "includesElement__atomic_weight_uncertainty": [0.001, 0.03], "includesElement__metallic_radius": [142.0], "formula": ["Gd3In1N1"], "spacegroup": ["221"], "thermalConductivity": [7.9262], "icsd": ["98503"], "band_gap": [0.0], "density": [8.601054], "density_atomic": [23.18966], "deprecated": [false], "efermi": [4.58065], "energy_above_hull": [0.0], "energy_per_atom": [-33.47217], "formation_energy_per_atom": [-1.092494], "is_gap_direct": [false], "is_magnetic": [true], "is_metal": [true], "is_stable": [true], "nelements": [3], "nsites": [5], "num_magnetic_sites": [3], "num_unique_magnetic_sites": [2], "theoretical": [false], "total_magnetization": [21.88847], "total_magnetization_normalized_formula_units": [21.88847], "total_magnetization_normalized_vol": [0.1887778], "uncorrected_energy_per_atom": [-33.47217], "volume": [115.9483], "equilibrium_reaction_energy_per_atom": [-0.07666864]}