{"includesElement": ["", "Ca", "O", "Ta"], "includesElement___series_id": [4, 1, 8], "includesElement__abundance_crust": [41500.0, 461000.0, 2.0], "includesElement__atomic_number": [20, 8, 73], "includesElement__atomic_radius": [180.0, 60.0, 145.0], "includesElement__atomic_radius_rahm": [270.0, 171.0, 258.0], "includesElement__atomic_volume": [29.9, 14.0, 10.9], "includesElement__atomic_weight": [40.078, 15.999, 180.9479], "includesElement__covalent_radius_cordero": [176.0, 66.0, 170.0], "includesElement__covalent_radius_pyykko": [171.0, 63.0, 146.0], "includesElement__covalent_radius_pyykko_double": [147.0, 57.0, 126.0], "includesElement__covalent_radius_pyykko_triple": [133.0, 53.0, 119.0], "includesElement__density": [1.54, 0.001308, 16.4], "includesElement__dipole_polarizability": [160.8, 5.3, 74.0], "includesElement__dipole_polarizability_unc": [4.0, 0.2, 20.0], "includesElement__discovery_year": [1808, 1774, 1802], "includesElement__electron_affinity": [0.02455, 1.461113, 0.322], "includesElement__electronegativity_allred-rochow": [9.746589e-05, 0.001146384, 0.0001548133], "includesElement__electronegativity_cottrell-sutton": [0.1290994, 0.2687419, 0.1503421], "includesElement__electronegativity_ghosh": [0.1154119, 0.304575, 0.234581], "includesElement__electronegativity_gordy": [0.01666667, 0.07222222, 0.02260274], "includesElement__electronegativity_mulliken": [3.068853, 7.539584, 3.935785], "includesElement__electronegativity_nagle": [0.2316939, 1.042218, 0.4072985], "includesElement__electronegativity_pauling": [1.0, 3.44, 1.5], "includesElement__electronegativity_sanderson": [0.1901577, 0.9416494, 0.8358832], "includesElement__en_ghosh": [0.1154119, 0.304575, 0.234581], "includesElement__en_pauling": [1.0, 3.44, 1.5], "includesElement__evaporation_heat": [153.6, 758.0], "includesElement__fusion_heat": [9.2, 24.7], "includesElement__glawe_number": [16, 97, 52], "includesElement__group_id": [2, 16, 5], "includesElement__heat_of_formation": [177.8, 249.229, 782.0], "includesElement__is_radioactive": [false], "includesElement__lattice_constant": [5.58, 6.83, 3.31], "includesElement__mendeleev_number": [7, 99, 49], "includesElement__molar_heat_capacity": [25.929, 29.378, 25.36], "includesElement__period": [4, 2, 6], "includesElement__pettifor_number": [16, 101, 53], "includesElement__specific_heat_capacity": [0.647, 0.918, 0.14], "includesElement__vdw_radius": [231.0, 152.0, 222.0], "includesElement__vdw_radius_alvarez": [262.0, 150.0, 253.0], "includesElement__vdw_radius_mm3": [281.0, 182.0, 243.0], "includesElement__vdw_radius_uff": [339.9, 350.0, 317.0], "includesElement__abundance_sea": [412.0, 857000.0, 2e-06], "includesElement__atomic_weight_uncertainty": [0.004, 2e-05], "includesElement__c6_gb": [2230.0, 16.7, 887.0], "includesElement__covalent_radius_bragg": [170.0, 65.0], "includesElement__electronegativity_allen": [6.113, 21.36, 7.93], "includesElement__en_allen": [6.113, 21.36, 7.93], "includesElement__metallic_radius": [174.0, 134.0], "includesElement__metallic_radius_c12": [197.0, 146.0], "includesElement__vdw_radius_batsanov": [240.0, 155.0, 220.0], "includesElement__c6": [2163.0, 15.6], "includesElement__vdw_radius_truhlar": [231.0], "includesElement__thermal_conductivity": [0.027, 57.5], "includesElement__vdw_radius_dreiding": [340.46], "includesElement__gas_basicity": [459.6], "includesElement__proton_affinity": [485.2], "includesElement__vdw_radius_bondi": [152.0], "includesElement__vdw_radius_rt": [158.0], "formula": ["Ca4O14Ta4"], "spacegroup": ["227"], "thermalConductivity": [8.30922], "icsd": ["27121"], "band_gap": [2.2952], "density": [6.451887], "density_atomic": [12.96333], "deprecated": [false], "efermi": [2.912986], "energy_above_hull": [0.0007884234], "energy_per_atom": [-9.153574], "formation_energy_per_atom": [-3.479855], "is_gap_direct": [true], "is_magnetic": [false], "is_metal": [false], "is_stable": [false], "nelements": [3], "nsites": [22], "num_magnetic_sites": [0], "num_unique_magnetic_sites": [0], "theoretical": [false], "total_magnetization": [0.0], "total_magnetization_normalized_formula_units": [0.0], "total_magnetization_normalized_vol": [0.0], "uncorrected_energy_per_atom": [-17.23054], "volume": [285.1934], "cbm": [5.1143], "vbm": [2.8191]}