{"includesElement": ["", "Mo", "B"], "includesElement___series_id": [8, 5], "includesElement__abundance_crust": [1.2, 10.0], "includesElement__atomic_number": [42, 5], "includesElement__atomic_radius": [145.0, 85.0], "includesElement__atomic_radius_rahm": [244.0, 205.0], "includesElement__atomic_volume": [9.4, 4.6], "includesElement__atomic_weight": [95.95, 10.81], "includesElement__covalent_radius_cordero": [154.0, 84.0], "includesElement__covalent_radius_pyykko": [138.0, 85.0], "includesElement__covalent_radius_pyykko_double": [121.0, 78.0], "includesElement__covalent_radius_pyykko_triple": [113.0, 73.0], "includesElement__density": [10.2, 2.34], "includesElement__dipole_polarizability": [87.0, 20.5], "includesElement__dipole_polarizability_unc": [6.0, 0.1], "includesElement__discovery_year": [1778, 1808], "includesElement__electron_affinity": [0.748, 0.279723], "includesElement__electronegativity_allred-rochow": [0.0001549044, 0.0003598616], "includesElement__electronegativity_cottrell-sutton": [0.1462081, 0.1748949], "includesElement__electronegativity_ghosh": [0.1312672, 0.184886], "includesElement__electronegativity_gordy": [0.02137681, 0.03058824], "includesElement__electronegativity_mulliken": [3.920215, 4.288871], "includesElement__electronegativity_nagle": [0.4100883, 0.5269739], "includesElement__electronegativity_pauling": [2.16, 2.04], "includesElement__electronegativity_sanderson": [0.685295, 0.2546274], "includesElement__en_ghosh": [0.1312672, 0.184886], "includesElement__en_pauling": [2.16, 2.04], "includesElement__evaporation_heat": [590.0, 504.5], "includesElement__fusion_heat": [28.0, 23.6], "includesElement__glawe_number": [56, 86], "includesElement__group_id": [6, 13], "includesElement__heat_of_formation": [658.98, 565.0], "includesElement__is_radioactive": [false], "includesElement__lattice_constant": [3.15, 8.73], "includesElement__mendeleev_number": [52, 81], "includesElement__molar_heat_capacity": [24.06, 11.087], "includesElement__period": [5, 2], "includesElement__pettifor_number": [55, 86], "includesElement__specific_heat_capacity": [0.251, 1.026], "includesElement__vdw_radius": [217.0, 192.0], "includesElement__vdw_radius_alvarez": [245.0, 191.0], "includesElement__vdw_radius_mm3": [239.0, 215.0], "includesElement__vdw_radius_uff": [305.2, 408.3], "includesElement__abundance_sea": [0.01, 4.44], "includesElement__atomic_weight_uncertainty": [0.01], "includesElement__c6_gb": [1030.0, 99.2], "includesElement__electronegativity_allen": [8.71, 12.13], "includesElement__en_allen": [8.71, 12.13], "includesElement__metallic_radius": [130.0, 80.0], "includesElement__metallic_radius_c12": [139.0, 98.0], "includesElement__vdw_radius_batsanov": [210.0, 180.0], "includesElement__thermal_conductivity": [27.4], "includesElement__c6": [99.5], "includesElement__vdw_radius_dreiding": [402.0], "includesElement__vdw_radius_truhlar": [192.0], "formula": ["B2Mo4"], "spacegroup": ["140"], "thermalConductivity": [22.5078], "icsd": ["24278"], "band_gap": [0.0], "density": [9.217875], "density_atomic": [12.17115], "deprecated": [false], "efermi": [8.626214], "energy_above_hull": [0.02714571], "energy_per_atom": [-20.15227], "formation_energy_per_atom": [-0.3221631], "homogeneous_poisson": [0.285], "is_gap_direct": [false], "is_magnetic": [false], "is_metal": [true], "is_stable": [false], "nelements": [2], "nsites": [6], "num_magnetic_sites": [0], "num_unique_magnetic_sites": [0], "theoretical": [false], "total_magnetization": [1e-07], "total_magnetization_normalized_formula_units": [5e-08], "total_magnetization_normalized_vol": [1.369359e-09], "uncorrected_energy_per_atom": [-20.15227], "universal_anisotropy": [0.02], "volume": [73.02688]}