{"includesElement": ["", "Th", "H"], "includesElement___series_id": [10, 1], "includesElement__abundance_crust": [9.6, 1400.0], "includesElement__atomic_number": [90, 1], "includesElement__atomic_radius": [180.0, 25.0], "includesElement__atomic_radius_rahm": [288.0, 154.0], "includesElement__atomic_volume": [19.8, 14.1], "includesElement__atomic_weight": [232.0377, 1.008], "includesElement__covalent_radius_cordero": [206.0, 31.0], "includesElement__covalent_radius_pyykko": [175.0, 32.0], "includesElement__covalent_radius_pyykko_double": [143.0], "includesElement__covalent_radius_pyykko_triple": [136.0], "includesElement__density": [11.7, 8.2e-05], "includesElement__dipole_polarizability": [217.0, 4.50711], "includesElement__dipole_polarizability_unc": [54.0, 3e-05], "includesElement__discovery_year": [1828, 1766], "includesElement__electronegativity_allred-rochow": [0.0001028571, 0.0009765625], "includesElement__electronegativity_cottrell-sutton": [0.1341641, 0.1767767], "includesElement__electronegativity_ghosh": [0.10277, 0.2638], "includesElement__electronegativity_gordy": [0.018, 0.03125], "includesElement__electronegativity_mulliken": [3.15335, 7.176315], "includesElement__electronegativity_nagle": [0.2641598, 0.6053882], "includesElement__electronegativity_pauling": [1.3, 2.2], "includesElement__electronegativity_sanderson": [0.5557019, 2.187771], "includesElement__en_ghosh": [0.10277, 0.2638], "includesElement__en_pauling": [1.3, 2.2], "includesElement__evaporation_heat": [513.7, 0.904], "includesElement__fusion_heat": [16.11, 0.117], "includesElement__glawe_number": [34, 103], "includesElement__heat_of_formation": [602.0, 217.998], "includesElement__is_radioactive": [true, false], "includesElement__lattice_constant": [5.08, 3.75], "includesElement__mendeleev_number": [16, 105], "includesElement__molar_heat_capacity": [27.32, 28.836], "includesElement__period": [7, 1], "includesElement__pettifor_number": [47, 103], "includesElement__specific_heat_capacity": [0.118, 14.304], "includesElement__vdw_radius": [245.0, 110.0], "includesElement__vdw_radius_alvarez": [293.0, 120.0], "includesElement__vdw_radius_mm3": [274.0, 162.0], "includesElement__vdw_radius_uff": [339.6, 288.6], "includesElement__abundance_sea": [1e-06, 108000.0], "includesElement__atomic_weight_uncertainty": [0.0004], "includesElement__vdw_radius_batsanov": [240.0], "includesElement__electron_affinity": [0.754195], "includesElement__group_id": [1], "includesElement__c6_gb": [6.51], "includesElement__electronegativity_allen": [13.61], "includesElement__en_allen": [13.61], "includesElement__metallic_radius_c12": [78.0], "includesElement__thermal_conductivity": [0.1815], "includesElement__c6": [6.499027], "includesElement__vdw_radius_dreiding": [319.5], "includesElement__vdw_radius_bondi": [120.0], "includesElement__vdw_radius_rt": [110.0], "formula": ["H2Th1"], "spacegroup": ["139"], "thermalConductivity": [1.74416], "icsd": ["180580"], "band_gap": [0.0], "density": [9.518303], "density_atomic": [13.61082], "deprecated": [false], "efermi": [6.602569], "energy_above_hull": [0.0], "energy_per_atom": [-27.35914], "formation_energy_per_atom": [-0.5639753], "homogeneous_poisson": [0.434], "is_gap_direct": [false], "is_magnetic": [false], "is_metal": [true], "is_stable": [true], "nelements": [2], "nsites": [3], "num_magnetic_sites": [0], "num_unique_magnetic_sites": [0], "theoretical": [false], "total_magnetization": [4e-07], "total_magnetization_normalized_formula_units": [4e-07], "total_magnetization_normalized_vol": [9.796128e-09], "uncorrected_energy_per_atom": [-27.35914], "universal_anisotropy": [16.842], "volume": [40.83246], "equilibrium_reaction_energy_per_atom": [-0.08855045]}