{"includesElement": ["", "Bi", "Pt", "Te"], "includesElement___series_id": [7, 8, 5], "includesElement__abundance_crust": [0.0085, 0.005, 0.001], "includesElement__atomic_number": [83, 78, 52], "includesElement__atomic_radius": [160.0, 135.0, 140.0], "includesElement__atomic_radius_rahm": [250.0, 230.0, 242.0], "includesElement__atomic_volume": [21.3, 9.1, 20.5], "includesElement__atomic_weight": [208.9804, 195.084, 127.6], "includesElement__covalent_radius_cordero": [148.0, 136.0, 138.0], "includesElement__covalent_radius_pyykko": [151.0, 123.0, 136.0], "includesElement__covalent_radius_pyykko_double": [141.0, 112.0, 128.0], "includesElement__covalent_radius_pyykko_triple": [135.0, 110.0, 121.0], "includesElement__density": [9.79, 21.5, 6.232], "includesElement__dipole_polarizability": [48.0, 38.0], "includesElement__dipole_polarizability_unc": [4.0], "includesElement__electron_affinity": [0.942362, 2.128, 1.970876], "includesElement__electronegativity_allred-rochow": [0.0002763037, 0.0002346487, 0.0003757569], "includesElement__electronegativity_cottrell-sutton": [0.2042593, 0.1698876, 0.2260596], "includesElement__electronegativity_ghosh": [0.182377, 0.25691, 0.2056992], "includesElement__electronegativity_gordy": [0.04172185, 0.02886179, 0.05110294], "includesElement__electronegativity_mulliken": [4.113939, 5.543415, 5.490268], "includesElement__electronegativity_nagle": [0.470518, 0.5928156, 0.5404919], "includesElement__electronegativity_pauling": [1.9, 2.2, 2.1], "includesElement__electronegativity_sanderson": [0.8136501, 1.45101, 0.8622506], "includesElement__en_ghosh": [0.182377, 0.25691, 0.2056992], "includesElement__en_pauling": [1.9, 2.2, 2.1], "includesElement__evaporation_heat": [172.0, 470.0, 49.8], "includesElement__fusion_heat": [11.0, 21.76, 17.91], "includesElement__glawe_number": [92, 64, 94], "includesElement__group_id": [15, 10, 16], "includesElement__heat_of_formation": [209.6, 565.7, 196.6], "includesElement__is_radioactive": [false], "includesElement__lattice_constant": [4.75, 3.92, 4.45], "includesElement__mendeleev_number": [97, 69, 102], "includesElement__molar_heat_capacity": [25.52, 25.86, 25.73], "includesElement__period": [6, 5], "includesElement__pettifor_number": [87, 68, 92], "includesElement__specific_heat_capacity": [0.122, 0.133, 0.202], "includesElement__vdw_radius": [207.0, 213.0, 206.0], "includesElement__vdw_radius_alvarez": [254.0, 229.0, 199.0], "includesElement__vdw_radius_mm3": [266.0, 239.0, 244.0], "includesElement__vdw_radius_uff": [437.0, 275.4, 447.0], "includesElement__abundance_sea": [2e-05], "includesElement__atomic_weight_uncertainty": [1e-05, 0.009, 0.03], "includesElement__c6_gb": [513.0, 470.0, 471.0], "includesElement__covalent_radius_bragg": [148.0, 133.0], "includesElement__electronegativity_allen": [11.9, 10.16, 12.76], "includesElement__en_allen": [11.9, 10.16, 12.76], "includesElement__metallic_radius": [151.0, 130.0, 137.0], "includesElement__metallic_radius_c12": [178.0, 139.0, 160.0], "includesElement__thermal_conductivity": [7.9, 71.6, 14.3], "includesElement__vdw_radius_batsanov": [230.0, 205.0, 210.0], "includesElement__is_monoisotopic": [true], "includesElement__vdw_radius_truhlar": [207.0], "includesElement__discovery_year": [1735, 1782], "includesElement__c6": [445.0], "includesElement__vdw_radius_dreiding": [423.0], "includesElement__vdw_radius_bondi": [206.0], "formula": ["Bi4Pt4Te4"], "spacegroup": ["198"], "thermalConductivity": [1.16404], "icsd": ["42549"], "band_gap": [0.0], "density": [11.6287], "density_atomic": [25.30662], "deprecated": [false], "efermi": [6.909158], "energy_above_hull": [0.0], "energy_per_atom": [-4.845193], "formation_energy_per_atom": [-0.4935497], "homogeneous_poisson": [0.331], "is_gap_direct": [false], "is_magnetic": [false], "is_metal": [true], "is_stable": [true], "nelements": [3], "nsites": [12], "num_magnetic_sites": [0], "num_unique_magnetic_sites": [0], "theoretical": [false], "total_magnetization": [2e-07], "total_magnetization_normalized_formula_units": [5e-08], "total_magnetization_normalized_vol": [6.585892e-10], "uncorrected_energy_per_atom": [-45.51635], "universal_anisotropy": [0.107], "volume": [303.6794], "equilibrium_reaction_energy_per_atom": [-0.0142671]}