{"includesElement": ["", "Al", "Zr", "Pt"], "includesElement___series_id": [7, 8], "includesElement__abundance_crust": [82300.0, 165.0, 0.005], "includesElement__atomic_number": [13, 40, 78], "includesElement__atomic_radius": [125.0, 155.0, 135.0], "includesElement__atomic_radius_rahm": [239.0, 269.0, 230.0], "includesElement__atomic_volume": [10.0, 14.1, 9.1], "includesElement__atomic_weight": [26.98154, 91.224, 195.084], "includesElement__covalent_radius_cordero": [121.0, 175.0, 136.0], "includesElement__covalent_radius_pyykko": [126.0, 154.0, 123.0], "includesElement__covalent_radius_pyykko_double": [113.0, 127.0, 112.0], "includesElement__covalent_radius_pyykko_triple": [111.0, 121.0, 110.0], "includesElement__density": [2.7, 6.52, 21.5], "includesElement__dipole_polarizability": [57.8, 112.0, 48.0], "includesElement__dipole_polarizability_unc": [1.0, 13.0, 4.0], "includesElement__discovery_year": [1825, 1789, 1735], "includesElement__electron_affinity": [0.43283, 0.426, 2.128], "includesElement__electronegativity_allred-rochow": [0.0002204586, 0.0001328217, 0.0002346487], "includesElement__electronegativity_cottrell-sutton": [0.1666667, 0.1430194, 0.1698876], "includesElement__electronegativity_ghosh": [0.150078, 0.1248887, 0.25691], "includesElement__electronegativity_gordy": [0.02777778, 0.02045455, 0.02886179], "includesElement__electronegativity_mulliken": [3.209299, 3.52995, 5.543415], "includesElement__electronegativity_nagle": [0.3730192, 0.3293169, 0.5928156], "includesElement__electronegativity_pauling": [1.61, 1.33, 2.2], "includesElement__electronegativity_sanderson": [0.2360927, 0.4744467, 1.45101], "includesElement__en_ghosh": [0.150078, 0.1248887, 0.25691], "includesElement__en_pauling": [1.61, 1.33, 2.2], "includesElement__evaporation_heat": [284.1, 567.0, 470.0], "includesElement__fusion_heat": [10.75, 19.2, 21.76], "includesElement__glawe_number": [78, 49, 64], "includesElement__group_id": [13, 4, 10], "includesElement__heat_of_formation": [330.9, 610.0, 565.7], "includesElement__is_radioactive": [false], "includesElement__lattice_constant": [4.05, 3.23, 3.92], "includesElement__mendeleev_number": [82, 44, 69], "includesElement__molar_heat_capacity": [24.2, 25.36, 25.86], "includesElement__period": [3, 5, 6], "includesElement__pettifor_number": [80, 49, 68], "includesElement__specific_heat_capacity": [0.897, 0.278, 0.133], "includesElement__vdw_radius": [184.0, 223.0, 213.0], "includesElement__vdw_radius_alvarez": [225.0, 252.0, 229.0], "includesElement__vdw_radius_mm3": [236.0, 254.0, 239.0], "includesElement__vdw_radius_uff": [449.9, 312.4, 275.4], "includesElement__abundance_sea": [0.002, 3e-05], "includesElement__atomic_weight_uncertainty": [7e-07, 0.002, 0.009], "includesElement__c6_gb": [520.0, 1360.0, 470.0], "includesElement__covalent_radius_bragg": [135.0], "includesElement__electronegativity_allen": [9.539, 7.808, 10.16], "includesElement__en_allen": [9.539, 7.808, 10.16], "includesElement__metallic_radius": [125.0, 145.0, 130.0], "includesElement__metallic_radius_c12": [143.0, 160.0, 139.0], "includesElement__thermal_conductivity": [237.0, 22.7, 71.6], "includesElement__vdw_radius_batsanov": [210.0, 230.0, 205.0], "includesElement__c6": [528.0], "includesElement__is_monoisotopic": [true], "includesElement__vdw_radius_dreiding": [439.0], "includesElement__vdw_radius_truhlar": [184.0], "formula": ["Al6Pt6Zr6"], "spacegroup": ["190"], "thermalConductivity": [3.13026], "icsd": ["156266"], "band_gap": [0.0], "density": [9.781902], "density_atomic": [17.72762], "deprecated": [false], "efermi": [6.602188], "energy_above_hull": [0.004510663], "energy_per_atom": [-7.16493], "formation_energy_per_atom": [-1.04346], "is_gap_direct": [false], "is_magnetic": [false], "is_metal": [true], "is_stable": [false], "nelements": [3], "nsites": [18], "num_magnetic_sites": [0], "num_unique_magnetic_sites": [0], "theoretical": [false], "total_magnetization": [7e-07], "total_magnetization_normalized_formula_units": [1.166667e-07], "total_magnetization_normalized_vol": [2.193689e-09], "uncorrected_energy_per_atom": [-28.15025], "volume": [319.0972]}