{"includesElement": ["", "Tc", "C"], "includesElement___series_id": [8, 1], "includesElement__atomic_number": [43, 6], "includesElement__atomic_radius": [135.0, 70.0], "includesElement__atomic_radius_rahm": [252.0, 190.0], "includesElement__atomic_volume": [8.5, 5.3], "includesElement__atomic_weight": [97.90721, 12.011], "includesElement__covalent_radius_cordero": [147.0, 73.0], "includesElement__covalent_radius_pyykko": [128.0, 75.0], "includesElement__covalent_radius_pyykko_double": [120.0, 67.0], "includesElement__covalent_radius_pyykko_triple": [110.0, 60.0], "includesElement__density": [11.0, 2.2], "includesElement__dipole_polarizability": [79.0, 11.3], "includesElement__dipole_polarizability_unc": [10.0, 0.2], "includesElement__discovery_year": [1937], "includesElement__electron_affinity": [0.55, 1.262119], "includesElement__electronegativity_allred-rochow": [0.0002197266, 0.0005777778], "includesElement__electronegativity_cottrell-sutton": [0.1677051, 0.2081666], "includesElement__electronegativity_ghosh": [0.1344592, 0.224776], "includesElement__electronegativity_gordy": [0.028125, 0.04333333], "includesElement__electronegativity_mulliken": [3.83469, 6.261208], "includesElement__electronegativity_nagle": [0.4458174, 0.7073926], "includesElement__electronegativity_pauling": [2.1, 2.55], "includesElement__electronegativity_sanderson": [0.8753613, 0.427525], "includesElement__en_ghosh": [0.1344592, 0.224776], "includesElement__en_pauling": [2.1, 2.55], "includesElement__evaporation_heat": [585.0], "includesElement__fusion_heat": [23.8], "includesElement__glawe_number": [59, 87], "includesElement__group_id": [7, 14], "includesElement__heat_of_formation": [678.0, 716.87], "includesElement__is_radioactive": [true, false], "includesElement__lattice_constant": [2.74, 3.57], "includesElement__mendeleev_number": [56, 87], "includesElement__period": [5, 2], "includesElement__pettifor_number": [58, 95], "includesElement__vdw_radius": [216.0, 170.0], "includesElement__vdw_radius_alvarez": [244.0, 177.0], "includesElement__vdw_radius_mm3": [236.0, 204.0], "includesElement__vdw_radius_uff": [299.8, 385.1], "includesElement__atomic_weight_uncertainty": [3e-05], "includesElement__c6_gb": [939.0, 47.9], "includesElement__electronegativity_allen": [8.94, 15.05], "includesElement__en_allen": [8.94, 15.05], "includesElement__metallic_radius": [127.0], "includesElement__metallic_radius_c12": [136.0, 86.0], "includesElement__thermal_conductivity": [50.6, 1.59], "includesElement__vdw_radius_batsanov": [205.0, 170.0], "includesElement__abundance_crust": [200.0], "includesElement__molar_heat_capacity": [8.517], "includesElement__specific_heat_capacity": [0.709], "includesElement__abundance_sea": [28.0], "includesElement__covalent_radius_bragg": [77.0], "includesElement__c6": [46.6], "includesElement__vdw_radius_dreiding": [389.83], "includesElement__vdw_radius_bondi": [170.0], "includesElement__vdw_radius_rt": [177.0], "formula": ["C1Tc1"], "spacegroup": ["225"], "thermalConductivity": [5.40894], "icsd": ["183167"], "band_gap": [0.0], "density": [8.93871], "density_atomic": [10.21831], "deprecated": [false], "efermi": [9.493704], "energy_above_hull": [0.6506215], "energy_per_atom": [-9.144031], "formation_energy_per_atom": [0.6506215], "homogeneous_poisson": [0.539], "is_gap_direct": [false], "is_magnetic": [true], "is_metal": [true], "is_stable": [false], "nelements": [2], "nsites": [2], "num_magnetic_sites": [1], "num_unique_magnetic_sites": [1], "theoretical": [true], "total_magnetization": [0.4283744], "total_magnetization_normalized_formula_units": [0.4283744], "total_magnetization_normalized_vol": [0.02096111], "uncorrected_energy_per_atom": [-9.144031], "universal_anisotropy": [-7.31], "volume": [20.43663]}