{"includesElement": ["", "Ca", "F", "Rb"], "includesElement___series_id": [4, 6, 3], "includesElement__abundance_crust": [41500.0, 585.0, 90.0], "includesElement__atomic_number": [20, 9, 37], "includesElement__atomic_radius": [180.0, 50.0, 235.0], "includesElement__atomic_radius_rahm": [270.0, 163.0, 240.0], "includesElement__atomic_volume": [29.9, 17.1, 55.9], "includesElement__atomic_weight": [40.078, 18.9984, 85.4678], "includesElement__covalent_radius_cordero": [176.0, 57.0, 220.0], "includesElement__covalent_radius_pyykko": [171.0, 64.0, 210.0], "includesElement__covalent_radius_pyykko_double": [147.0, 59.0, 202.0], "includesElement__covalent_radius_pyykko_triple": [133.0, 53.0], "includesElement__density": [1.54, 0.001553, 1.53], "includesElement__dipole_polarizability": [160.8, 3.74, 319.8], "includesElement__dipole_polarizability_unc": [4.0, 0.08, 0.3], "includesElement__discovery_year": [1808, 1886, 1861], "includesElement__electron_affinity": [0.02455, 3.40119, 0.48592], "includesElement__electronegativity_allred-rochow": [9.746589e-05, 0.001269531, 4.988662e-05], "includesElement__electronegativity_cottrell-sutton": [0.1290994, 0.2850439, 0.1023533], "includesElement__electronegativity_ghosh": [0.1154119, 0.344443, 0.104686], "includesElement__electronegativity_gordy": [0.01666667, 0.08125, 0.01047619], "includesElement__electronegativity_mulliken": [3.068853, 10.412, 2.331524], "includesElement__electronegativity_nagle": [0.2316939, 1.232373, 0.1462314], "includesElement__electronegativity_pauling": [1.0, 3.98, 0.82], "includesElement__electronegativity_sanderson": [0.1901577, 1.017681, 0.1764136], "includesElement__en_ghosh": [0.1154119, 0.344443, 0.104686], "includesElement__en_pauling": [1.0, 3.98, 0.82], "includesElement__evaporation_heat": [153.6, 6.54, 75.8], "includesElement__fusion_heat": [9.2, 0.51, 2.2], "includesElement__glawe_number": [16, 102, 9], "includesElement__group_id": [2, 17, 1], "includesElement__heat_of_formation": [177.8, 79.335, 80.9], "includesElement__is_radioactive": [false], "includesElement__lattice_constant": [5.58, 5.59], "includesElement__mendeleev_number": [7, 106, 4], "includesElement__molar_heat_capacity": [25.929, 31.304, 31.06], "includesElement__period": [4, 2, 5], "includesElement__pettifor_number": [16, 102, 9], "includesElement__specific_heat_capacity": [0.647, 0.824, 0.363], "includesElement__vdw_radius": [231.0, 147.0, 303.0], "includesElement__vdw_radius_alvarez": [262.0, 146.0, 321.0], "includesElement__vdw_radius_mm3": [281.0, 171.0, 325.0], "includesElement__vdw_radius_uff": [339.9, 336.4, 411.4], "includesElement__abundance_sea": [412.0, 1.3, 0.12], "includesElement__atomic_weight_uncertainty": [0.004, 6e-09, 0.0003], "includesElement__c6_gb": [2230.0, 10.2, 4660.0], "includesElement__covalent_radius_bragg": [170.0, 67.0, 225.0], "includesElement__electronegativity_allen": [6.113, 24.8, 4.177], "includesElement__en_allen": [6.113, 24.8, 4.177], "includesElement__metallic_radius": [174.0, 216.0], "includesElement__metallic_radius_c12": [197.0, 248.0], "includesElement__vdw_radius_batsanov": [240.0, 150.0, 290.0], "includesElement__c6": [2163.0, 9.52, 4769.0], "includesElement__vdw_radius_truhlar": [231.0, 303.0], "includesElement__thermal_conductivity": [0.028, 58.2], "includesElement__is_monoisotopic": [true], "includesElement__vdw_radius_dreiding": [347.2], "includesElement__gas_basicity": [315.1], "includesElement__proton_affinity": [340.1], "includesElement__vdw_radius_bondi": [147.0], "includesElement__vdw_radius_rt": [146.0], "formula": ["Ca1F3Rb1"], "spacegroup": ["221"], "thermalConductivity": [2.66995], "icsd": ["201252"], "band_gap": [6.3971], "density": [3.429846], "density_atomic": [17.67522], "deprecated": [false], "efermi": [-2.279937], "energy_above_hull": [0.0], "energy_per_atom": [-5.462588], "formation_energy_per_atom": [-3.718474], "homogeneous_poisson": [0.268], "is_gap_direct": [false], "is_magnetic": [false], "is_metal": [false], "is_stable": [true], "nelements": [3], "nsites": [5], "num_magnetic_sites": [0], "num_unique_magnetic_sites": [0], "theoretical": [false], "total_magnetization": [0.0], "total_magnetization_normalized_formula_units": [0.0], "total_magnetization_normalized_vol": [0.0], "uncorrected_energy_per_atom": [-9.766202], "universal_anisotropy": [0.656], "volume": [88.37612], "cbm": [3.9994], "e_electronic": [2.117063], "e_ionic": [13.15973], "e_total": [15.27679], "equilibrium_reaction_energy_per_atom": [-0.03409022], "n": [1.455013], "vbm": [-2.3977]}