{"includesElement": ["", "Be", "Al", "B"], "includesElement___series_id": [4, 7, 5], "includesElement__abundance_crust": [2.8, 82300.0, 10.0], "includesElement__atomic_number": [4, 13, 5], "includesElement__atomic_radius": [105.0, 125.0, 85.0], "includesElement__atomic_radius_rahm": [219.0, 239.0, 205.0], "includesElement__atomic_volume": [5.0, 10.0, 4.6], "includesElement__atomic_weight": [9.012183, 26.98154, 10.81], "includesElement__covalent_radius_cordero": [96.0, 121.0, 84.0], "includesElement__covalent_radius_pyykko": [102.0, 126.0, 85.0], "includesElement__covalent_radius_pyykko_double": [90.0, 113.0, 78.0], "includesElement__covalent_radius_pyykko_triple": [85.0, 111.0, 73.0], "includesElement__density": [1.85, 2.7, 2.34], "includesElement__dipole_polarizability": [37.74, 57.8, 20.5], "includesElement__dipole_polarizability_unc": [0.03, 1.0, 0.1], "includesElement__discovery_year": [1798, 1825, 1808], "includesElement__electron_affinity": [-2.4, 0.43283, 0.279723], "includesElement__electronegativity_allred-rochow": [0.0001874279, 0.0002204586, 0.0003598616], "includesElement__electronegativity_cottrell-sutton": [0.1382666, 0.1666667, 0.1748949], "includesElement__electronegativity_ghosh": [0.144986, 0.150078, 0.184886], "includesElement__electronegativity_gordy": [0.01911765, 0.02777778, 0.03058824], "includesElement__electronegativity_mulliken": [3.461349, 3.209299, 4.288871], "includesElement__electronegativity_nagle": [0.3756148, 0.3730192, 0.5269739], "includesElement__electronegativity_pauling": [1.57, 1.61, 2.04], "includesElement__electronegativity_sanderson": [0.1268473, 0.2360927, 0.2546274], "includesElement__en_ghosh": [0.144986, 0.150078, 0.184886], "includesElement__en_pauling": [1.57, 1.61, 2.04], "includesElement__evaporation_heat": [309.0, 284.1, 504.5], "includesElement__fusion_heat": [12.21, 10.75, 23.6], "includesElement__glawe_number": [77, 78, 86], "includesElement__group_id": [2, 13], "includesElement__heat_of_formation": [324.0, 330.9, 565.0], "includesElement__is_radioactive": [false], "includesElement__lattice_constant": [2.29, 4.05, 8.73], "includesElement__mendeleev_number": [75, 82, 81], "includesElement__molar_heat_capacity": [16.443, 24.2, 11.087], "includesElement__period": [2, 3], "includesElement__pettifor_number": [77, 80, 86], "includesElement__specific_heat_capacity": [1.825, 0.897, 1.026], "includesElement__vdw_radius": [153.0, 184.0, 192.0], "includesElement__vdw_radius_alvarez": [198.0, 225.0, 191.0], "includesElement__vdw_radius_mm3": [223.0, 236.0, 215.0], "includesElement__vdw_radius_uff": [274.5, 449.9, 408.3], "includesElement__abundance_sea": [5.6e-06, 0.002, 4.44], "includesElement__atomic_weight_uncertainty": [5e-07, 7e-07], "includesElement__c6_gb": [214.0, 520.0, 99.2], "includesElement__covalent_radius_bragg": [115.0, 135.0], "includesElement__electronegativity_allen": [9.323, 9.539, 12.13], "includesElement__en_allen": [9.323, 9.539, 12.13], "includesElement__metallic_radius": [89.0, 125.0, 80.0], "includesElement__metallic_radius_c12": [112.0, 143.0, 98.0], "includesElement__thermal_conductivity": [201.0, 237.0, 27.4], "includesElement__vdw_radius_batsanov": [190.0, 210.0, 180.0], "includesElement__c6": [227.0, 528.0, 99.5], "includesElement__is_monoisotopic": [true], "includesElement__vdw_radius_truhlar": [153.0, 184.0, 192.0], "includesElement__vdw_radius_dreiding": [439.0, 402.0], "formula": ["Al1B1Be1", "BeAlB"], "mp_id": ["4262"], "spacegroup": ["216"], "thermalConductivity": [67.878, 18.71], "icsd": ["43351"], "band_gap": [0.0], "density": [2.567389], "density_atomic": [10.0908], "deprecated": [false], "efermi": [7.384461], "energy_above_hull": [0.0], "energy_per_atom": [-4.773859], "formation_energy_per_atom": [-0.05239917], "homogeneous_poisson": [0.139], "is_gap_direct": [false], "is_magnetic": [false], "is_metal": [true], "is_stable": [true], "nelements": [3], "nsites": [3], "num_magnetic_sites": [0], "num_unique_magnetic_sites": [0], "theoretical": [false], "total_magnetization": [4e-07], "total_magnetization_normalized_formula_units": [4e-07], "total_magnetization_normalized_vol": [1.321335e-08], "uncorrected_energy_per_atom": [-6.233663], "universal_anisotropy": [0.223], "volume": [30.27241], "equilibrium_reaction_energy_per_atom": [-0.02551188]}