{"includesElement": ["", "Nb", "C"], "includesElement___series_id": [8, 1], "includesElement__abundance_crust": [20.0, 200.0], "includesElement__atomic_number": [41, 6], "includesElement__atomic_radius": [145.0, 70.0], "includesElement__atomic_radius_rahm": [251.0, 190.0], "includesElement__atomic_volume": [10.8, 5.3], "includesElement__atomic_weight": [92.90637, 12.011], "includesElement__covalent_radius_cordero": [164.0, 73.0], "includesElement__covalent_radius_pyykko": [147.0, 75.0], "includesElement__covalent_radius_pyykko_double": [125.0, 67.0], "includesElement__covalent_radius_pyykko_triple": [116.0, 60.0], "includesElement__density": [8.57, 2.2], "includesElement__dipole_polarizability": [98.0, 11.3], "includesElement__dipole_polarizability_unc": [8.0, 0.2], "includesElement__discovery_year": [1801], "includesElement__electron_affinity": [0.917406, 1.262119], "includesElement__electronegativity_allred-rochow": [0.0001295756, 0.0005777778], "includesElement__electronegativity_cottrell-sutton": [0.1380131, 0.2081666], "includesElement__electronegativity_ghosh": [0.1280782, 0.224776], "includesElement__electronegativity_gordy": [0.01904762, 0.04333333], "includesElement__electronegativity_mulliken": [3.838128, 6.261208], "includesElement__electronegativity_nagle": [0.3708924, 0.7073926], "includesElement__electronegativity_pauling": [1.6, 2.55], "includesElement__electronegativity_sanderson": [0.5561695, 0.427525], "includesElement__en_ghosh": [0.1280782, 0.224776], "includesElement__en_pauling": [1.6, 2.55], "includesElement__evaporation_heat": [680.0], "includesElement__fusion_heat": [26.8], "includesElement__glawe_number": [53, 87], "includesElement__group_id": [5, 14], "includesElement__heat_of_formation": [733.0, 716.87], "includesElement__is_radioactive": [false], "includesElement__lattice_constant": [3.3, 3.57], "includesElement__mendeleev_number": [48, 87], "includesElement__molar_heat_capacity": [24.6, 8.517], "includesElement__period": [5, 2], "includesElement__pettifor_number": [52, 95], "includesElement__specific_heat_capacity": [0.265, 0.709], "includesElement__vdw_radius": [218.0, 170.0], "includesElement__vdw_radius_alvarez": [256.0, 177.0], "includesElement__vdw_radius_mm3": [243.0, 204.0], "includesElement__vdw_radius_uff": [316.5, 385.1], "includesElement__abundance_sea": [1e-05, 28.0], "includesElement__atomic_weight_uncertainty": [2e-05], "includesElement__c6_gb": [1140.0, 47.9], "includesElement__electronegativity_allen": [8.34, 15.05], "includesElement__en_allen": [8.34, 15.05], "includesElement__metallic_radius": [134.0], "includesElement__metallic_radius_c12": [146.0, 86.0], "includesElement__thermal_conductivity": [53.7, 1.59], "includesElement__vdw_radius_batsanov": [215.0, 170.0], "includesElement__is_monoisotopic": [true], "includesElement__covalent_radius_bragg": [77.0], "includesElement__c6": [46.6], "includesElement__vdw_radius_dreiding": [389.83], "includesElement__vdw_radius_bondi": [170.0], "includesElement__vdw_radius_rt": [177.0], "formula": ["C2Nb2"], "spacegroup": ["194"], "thermalConductivity": [32.0512], "icsd": ["189093"], "band_gap": [0.0], "density": [7.244866], "density_atomic": [12.02361], "deprecated": [false], "efermi": [6.37748], "energy_above_hull": [0.4101652], "energy_per_atom": [-9.754034], "formation_energy_per_atom": [-0.08904873], "homogeneous_poisson": [0.266], "is_gap_direct": [false], "is_magnetic": [false], "is_metal": [true], "is_stable": [false], "nelements": [2], "nsites": [4], "num_magnetic_sites": [0], "num_unique_magnetic_sites": [0], "theoretical": [true], "total_magnetization": [4.67e-05], "total_magnetization_normalized_formula_units": [2.335e-05], "total_magnetization_normalized_vol": [9.71006e-07], "uncorrected_energy_per_atom": [-9.754034], "universal_anisotropy": [0.251], "volume": [48.09445]}