{"includesElement": ["", "Sb", "Pd", "Yb"], "includesElement___series_id": [5, 8, 9], "includesElement__abundance_crust": [0.2, 0.015, 3.2], "includesElement__atomic_number": [51, 46, 70], "includesElement__atomic_radius": [145.0, 140.0, 175.0], "includesElement__atomic_radius_rahm": [246.0, 215.0, 277.0], "includesElement__atomic_volume": [18.4, 8.9, 24.8], "includesElement__atomic_weight": [121.76, 106.42, 173.045], "includesElement__covalent_radius_cordero": [139.0, 187.0], "includesElement__covalent_radius_pyykko": [140.0, 120.0, 170.0], "includesElement__covalent_radius_pyykko_double": [133.0, 117.0, 129.0], "includesElement__covalent_radius_pyykko_triple": [127.0, 112.0], "includesElement__density": [6.68, 12.0, 6.9], "includesElement__dipole_polarizability": [43.0, 26.14, 139.0], "includesElement__dipole_polarizability_unc": [2.0, 0.1, 6.0], "includesElement__electron_affinity": [1.046, 0.562, -0.02], "includesElement__electronegativity_allred-rochow": [0.0003214286, 0.0004756944, 9.861592e-05], "includesElement__electronegativity_cottrell-sutton": [0.212132, 0.2389212, 0.1294786], "includesElement__electronegativity_ghosh": [0.1918774, 0.1440276, 0.22119], "includesElement__electronegativity_gordy": [0.045, 0.05708333, 0.01676471], "includesElement__electronegativity_mulliken": [4.827195, 4.44943, 3.11708], "includesElement__electronegativity_nagle": [0.4880907, 0.7259357, 0.4864465], "includesElement__electronegativity_pauling": [2.05, 2.2], "includesElement__electronegativity_sanderson": [0.7762722, 1.124263, 0.5176678], "includesElement__en_ghosh": [0.1918774, 0.1440276, 0.22119], "includesElement__en_pauling": [2.05, 2.2], "includesElement__evaporation_heat": [195.2, 372.4, 159.0], "includesElement__fusion_heat": [20.08, 17.24, 3.35], "includesElement__glawe_number": [91, 65, 18], "includesElement__group_id": [15, 10], "includesElement__heat_of_formation": [264.4, 376.6, 155.6], "includesElement__is_radioactive": [false], "includesElement__lattice_constant": [4.51, 3.89, 5.49], "includesElement__mendeleev_number": [96, 68, 39], "includesElement__molar_heat_capacity": [25.23, 25.98, 26.74], "includesElement__period": [5, 6], "includesElement__pettifor_number": [88, 69, 17], "includesElement__specific_heat_capacity": [0.207, 0.246, 0.155], "includesElement__vdw_radius": [206.0, 210.0, 226.0], "includesElement__vdw_radius_alvarez": [247.0, 215.0, 280.0], "includesElement__vdw_radius_mm3": [252.0, 237.0, 279.0], "includesElement__vdw_radius_uff": [442.0, 289.9, 335.5], "includesElement__abundance_sea": [0.00024, 8.2e-07], "includesElement__atomic_weight_uncertainty": [0.001, 0.01], "includesElement__c6_gb": [504.0, 628.0, 1910.0], "includesElement__covalent_radius_bragg": [140.0], "includesElement__electronegativity_allen": [11.74, 9.402], "includesElement__en_allen": [11.74, 9.402], "includesElement__metallic_radius": [139.0, 128.0], "includesElement__metallic_radius_c12": [166.0, 137.0], "includesElement__thermal_conductivity": [24.43, 71.8], "includesElement__vdw_radius_batsanov": [220.0, 205.0], "includesElement__c6": [492.0], "includesElement__vdw_radius_dreiding": [435.0], "includesElement__vdw_radius_truhlar": [206.0], "includesElement__discovery_year": [1803, 1878], "includesElement__gas_basicity": [673.4], "includesElement__proton_affinity": [696.0], "formula": ["Pd1Sb1Yb1"], "spacegroup": ["216"], "thermalConductivity": [1.44375], "icsd": ["391183"], "band_gap": [0.0], "density": [9.129607], "density_atomic": [24.32531], "deprecated": [false], "efermi": [4.471265], "is_gap_direct": [false], "is_magnetic": [false], "is_metal": [true], "is_stable": [false], "nelements": [3], "nsites": [3], "num_magnetic_sites": [0], "num_unique_magnetic_sites": [0], "theoretical": [false], "total_magnetization": [0.0080752], "total_magnetization_normalized_formula_units": [0.0080752], "total_magnetization_normalized_vol": [0.0001106557], "volume": [72.97592]}