{"includesElement": ["", "Ge", "Cs", "Br"], "includesElement___series_id": [5, 3, 6], "includesElement__abundance_crust": [1.5, 3.0, 2.4], "includesElement__atomic_number": [32, 55, 35], "includesElement__atomic_radius": [125.0, 260.0, 115.0], "includesElement__atomic_radius_rahm": [234.0, 249.0, 219.0], "includesElement__atomic_volume": [13.6, 70.0, 23.5], "includesElement__atomic_weight": [72.63, 132.9055, 79.904], "includesElement__covalent_radius_cordero": [120.0, 244.0], "includesElement__covalent_radius_pyykko": [121.0, 232.0, 114.0], "includesElement__covalent_radius_pyykko_double": [111.0, 209.0, 109.0], "includesElement__covalent_radius_pyykko_triple": [114.0, 110.0], "includesElement__density": [5.3234, 1.873, 3.1028], "includesElement__dipole_polarizability": [40.0, 400.9, 21.0], "includesElement__dipole_polarizability_unc": [1.0, 0.7], "includesElement__discovery_year": [1886, 1860, 1826], "includesElement__electron_affinity": [1.232712, 0.471626, 3.363588], "includesElement__electronegativity_allred-rochow": [0.0003859026, 4.087396e-05, 0.0005847953], "includesElement__electronegativity_cottrell-sutton": [0.2160884, 0.09737946, 0.2581989], "includesElement__electronegativity_ghosh": [0.1895892, 0.1542125, 0.2412578], "includesElement__electronegativity_gordy": [0.04669421, 0.009482759, 0.06666667], "includesElement__electronegativity_mulliken": [4.566073, 2.182766, 7.588699], "includesElement__electronegativity_nagle": [0.4641589, 0.1356192, 0.6933613], "includesElement__electronegativity_pauling": [2.01, 0.79, 2.96], "includesElement__electronegativity_sanderson": [0.8001471, 0.1814531, 1.049026], "includesElement__en_ghosh": [0.1895892, 0.1542125, 0.2412578], "includesElement__en_pauling": [2.01, 0.79, 2.96], "includesElement__evaporation_heat": [328.0, 68.3, 29.56], "includesElement__fusion_heat": [36.8, 2.09, 10.57], "includesElement__glawe_number": [84, 8, 100], "includesElement__group_id": [14, 1, 17], "includesElement__heat_of_formation": [372.0, 76.5, 111.85], "includesElement__is_radioactive": [false], "includesElement__lattice_constant": [5.66, 6.05, 6.67], "includesElement__mendeleev_number": [89, 5, 108], "includesElement__molar_heat_capacity": [23.222, 32.21, 75.69], "includesElement__period": [4, 6], "includesElement__pettifor_number": [84, 8, 98], "includesElement__specific_heat_capacity": [0.32, 0.242, 0.474], "includesElement__vdw_radius": [211.0, 343.0, 185.0], "includesElement__vdw_radius_alvarez": [229.0, 348.0, 186.0], "includesElement__vdw_radius_mm3": [244.0, 344.0, 222.0], "includesElement__vdw_radius_uff": [428.0, 451.7, 418.9], "includesElement__abundance_sea": [5e-05, 0.0003, 67.3], "includesElement__atomic_weight_uncertainty": [0.008, 6e-08], "includesElement__c6_gb": [365.0, 6660.0, 187.0], "includesElement__electronegativity_allen": [11.8, 3.898, 15.88], "includesElement__en_allen": [11.8, 3.898, 15.88], "includesElement__metallic_radius": [124.0, 235.0], "includesElement__metallic_radius_c12": [144.0, 267.0, 117.0], "includesElement__thermal_conductivity": [60.2, 35.9, 0.005], "includesElement__vdw_radius_batsanov": [210.0, 300.0, 190.0], "includesElement__c6": [354.0, 162.0], "includesElement__vdw_radius_dreiding": [427.0, 395.0], "includesElement__vdw_radius_truhlar": [211.0, 343.0], "includesElement__covalent_radius_bragg": [237.0, 119.0], "includesElement__is_monoisotopic": [true], "includesElement__gas_basicity": [531.2], "includesElement__proton_affinity": [554.4], "includesElement__vdw_radius_bondi": [183.0], "includesElement__vdw_radius_rt": [187.0], "formula": ["Br3Cs1Ge1"], "spacegroup": ["221"], "thermalConductivity": [1.09442], "icsd": ["80320"], "band_gap": [0.7607], "density": [4.364166], "density_atomic": [33.88356], "deprecated": [false], "efermi": [1.335688], "energy_above_hull": [0.01684547], "energy_per_atom": [-3.518246], "formation_energy_per_atom": [-1.482077], "homogeneous_poisson": [0.265], "is_gap_direct": [true], "is_magnetic": [false], "is_metal": [false], "is_stable": [false], "nelements": [3], "nsites": [5], "num_magnetic_sites": [0], "num_unique_magnetic_sites": [0], "theoretical": [false], "total_magnetization": [0.0], "total_magnetization_normalized_formula_units": [0.0], "total_magnetization_normalized_vol": [0.0], "uncorrected_energy_per_atom": [-16.97632], "universal_anisotropy": [0.487], "volume": [169.4178], "cbm": [2.001], "e_electronic": [6.549908], "e_ionic": [4.523285], "e_total": [11.07319], "n": [2.559279], "vbm": [1.2403]}