{"includesElement": ["", "Os", "B"], "includesElement___series_id": [8, 5], "includesElement__abundance_crust": [0.0015, 10.0], "includesElement__atomic_number": [76, 5], "includesElement__atomic_radius": [130.0, 85.0], "includesElement__atomic_radius_rahm": [244.0, 205.0], "includesElement__atomic_volume": [8.43, 4.6], "includesElement__atomic_weight": [190.23, 10.81], "includesElement__covalent_radius_cordero": [144.0, 84.0], "includesElement__covalent_radius_pyykko": [129.0, 85.0], "includesElement__covalent_radius_pyykko_double": [116.0, 78.0], "includesElement__covalent_radius_pyykko_triple": [109.0, 73.0], "includesElement__density": [22.5872, 2.34], "includesElement__dipole_polarizability": [57.0, 20.5], "includesElement__dipole_polarizability_unc": [3.0, 0.1], "includesElement__discovery_year": [1804, 1808], "includesElement__electron_affinity": [1.1, 0.279723], "includesElement__electronegativity_allred-rochow": [0.000225347, 0.0003598616], "includesElement__electronegativity_cottrell-sutton": [0.1704986, 0.1748949], "includesElement__electronegativity_ghosh": [0.2479845, 0.184886], "includesElement__electronegativity_gordy": [0.02906977, 0.03058824], "includesElement__electronegativity_mulliken": [4.769115, 4.288871], "includesElement__electronegativity_nagle": [0.5196828, 0.5269739], "includesElement__electronegativity_pauling": [2.2, 2.04], "includesElement__electronegativity_sanderson": [1.239276, 0.2546274], "includesElement__en_ghosh": [0.2479845, 0.184886], "includesElement__en_pauling": [2.2, 2.04], "includesElement__evaporation_heat": [738.0, 504.5], "includesElement__fusion_heat": [31.7, 23.6], "includesElement__glawe_number": [60, 86], "includesElement__group_id": [8, 13], "includesElement__heat_of_formation": [787.0, 565.0], "includesElement__is_radioactive": [false], "includesElement__lattice_constant": [2.74, 8.73], "includesElement__mendeleev_number": [61, 81], "includesElement__molar_heat_capacity": [24.7, 11.087], "includesElement__period": [6, 2], "includesElement__pettifor_number": [62, 86], "includesElement__specific_heat_capacity": [0.13, 1.026], "includesElement__vdw_radius": [216.0, 192.0], "includesElement__vdw_radius_alvarez": [248.0, 191.0], "includesElement__vdw_radius_mm3": [235.0, 215.0], "includesElement__vdw_radius_uff": [312.0, 408.3], "includesElement__atomic_weight_uncertainty": [0.03], "includesElement__c6_gb": [584.0, 99.2], "includesElement__electronegativity_allen": [9.78, 12.13], "includesElement__en_allen": [9.78, 12.13], "includesElement__metallic_radius": [126.0, 80.0], "includesElement__metallic_radius_c12": [135.0, 98.0], "includesElement__vdw_radius_batsanov": [200.0, 180.0], "includesElement__abundance_sea": [4.44], "includesElement__thermal_conductivity": [27.4], "includesElement__c6": [99.5], "includesElement__vdw_radius_dreiding": [402.0], "includesElement__vdw_radius_truhlar": [192.0], "formula": ["B1Os1"], "spacegroup": ["187"], "thermalConductivity": [55.6781], "icsd": ["181304"], "band_gap": [0.0], "density": [16.10705], "density_atomic": [10.36306], "deprecated": [false], "efermi": [8.579265], "energy_above_hull": [0.0], "energy_per_atom": [-30.43815], "formation_energy_per_atom": [-0.2723555], "homogeneous_poisson": [0.25], "is_gap_direct": [false], "is_magnetic": [false], "is_metal": [true], "is_stable": [true], "nelements": [2], "nsites": [2], "num_magnetic_sites": [0], "num_unique_magnetic_sites": [0], "theoretical": [true], "total_magnetization": [0.0], "total_magnetization_normalized_formula_units": [0.0], "total_magnetization_normalized_vol": [0.0], "uncorrected_energy_per_atom": [-30.43815], "universal_anisotropy": [0.115], "volume": [20.72611], "equilibrium_reaction_energy_per_atom": [-0.04447696]}