{"includesElement": ["", "Sb", "B"], "includesElement___series_id": [5], "includesElement__abundance_crust": [0.2, 10.0], "includesElement__atomic_number": [51, 5], "includesElement__atomic_radius": [145.0, 85.0], "includesElement__atomic_radius_rahm": [246.0, 205.0], "includesElement__atomic_volume": [18.4, 4.6], "includesElement__atomic_weight": [121.76, 10.81], "includesElement__covalent_radius_cordero": [139.0, 84.0], "includesElement__covalent_radius_pyykko": [140.0, 85.0], "includesElement__covalent_radius_pyykko_double": [133.0, 78.0], "includesElement__covalent_radius_pyykko_triple": [127.0, 73.0], "includesElement__density": [6.68, 2.34], "includesElement__dipole_polarizability": [43.0, 20.5], "includesElement__dipole_polarizability_unc": [2.0, 0.1], "includesElement__electron_affinity": [1.046, 0.279723], "includesElement__electronegativity_allred-rochow": [0.0003214286, 0.0003598616], "includesElement__electronegativity_cottrell-sutton": [0.212132, 0.1748949], "includesElement__electronegativity_ghosh": [0.1918774, 0.184886], "includesElement__electronegativity_gordy": [0.045, 0.03058824], "includesElement__electronegativity_mulliken": [4.827195, 4.288871], "includesElement__electronegativity_nagle": [0.4880907, 0.5269739], "includesElement__electronegativity_pauling": [2.05, 2.04], "includesElement__electronegativity_sanderson": [0.7762722, 0.2546274], "includesElement__en_ghosh": [0.1918774, 0.184886], "includesElement__en_pauling": [2.05, 2.04], "includesElement__evaporation_heat": [195.2, 504.5], "includesElement__fusion_heat": [20.08, 23.6], "includesElement__glawe_number": [91, 86], "includesElement__group_id": [15, 13], "includesElement__heat_of_formation": [264.4, 565.0], "includesElement__is_radioactive": [false], "includesElement__lattice_constant": [4.51, 8.73], "includesElement__mendeleev_number": [96, 81], "includesElement__molar_heat_capacity": [25.23, 11.087], "includesElement__period": [5, 2], "includesElement__pettifor_number": [88, 86], "includesElement__specific_heat_capacity": [0.207, 1.026], "includesElement__vdw_radius": [206.0, 192.0], "includesElement__vdw_radius_alvarez": [247.0, 191.0], "includesElement__vdw_radius_mm3": [252.0, 215.0], "includesElement__vdw_radius_uff": [442.0, 408.3], "includesElement__abundance_sea": [0.00024, 4.44], "includesElement__atomic_weight_uncertainty": [0.001], "includesElement__c6_gb": [504.0, 99.2], "includesElement__covalent_radius_bragg": [140.0], "includesElement__electronegativity_allen": [11.74, 12.13], "includesElement__en_allen": [11.74, 12.13], "includesElement__metallic_radius": [139.0, 80.0], "includesElement__metallic_radius_c12": [166.0, 98.0], "includesElement__thermal_conductivity": [24.43, 27.4], "includesElement__vdw_radius_batsanov": [220.0, 180.0], "includesElement__c6": [492.0, 99.5], "includesElement__vdw_radius_dreiding": [435.0, 402.0], "includesElement__vdw_radius_truhlar": [206.0, 192.0], "includesElement__discovery_year": [1808], "formula": ["B1Sb1"], "spacegroup": ["216"], "thermalConductivity": [24.123], "icsd": ["184571"], "band_gap": [0.7506], "density": [5.974007], "density_atomic": [18.42476], "deprecated": [false], "efermi": [7.39876], "energy_above_hull": [0.2739728], "energy_per_atom": [-16.25236], "formation_energy_per_atom": [0.2739728], "homogeneous_poisson": [0.169], "is_gap_direct": [false], "is_magnetic": [false], "is_metal": [false], "is_stable": [false], "nelements": [2], "nsites": [2], "num_magnetic_sites": [0], "num_unique_magnetic_sites": [0], "theoretical": [true], "total_magnetization": [0.0002022], "total_magnetization_normalized_formula_units": [0.0002022], "total_magnetization_normalized_vol": [5.487181e-06], "uncorrected_energy_per_atom": [-5.034224], "universal_anisotropy": [0.237], "volume": [36.84952], "cbm": [8.1081], "vbm": [7.3575]}