{"includesElement": ["", "Pd", "Sr", "In"], "includesElement___series_id": [8, 4, 7], "includesElement__abundance_crust": [0.015, 370.0, 0.25], "includesElement__atomic_number": [46, 38, 49], "includesElement__atomic_radius": [140.0, 200.0, 155.0], "includesElement__atomic_radius_rahm": [215.0, 279.0, 246.0], "includesElement__atomic_volume": [8.9, 33.7, 15.7], "includesElement__atomic_weight": [106.42, 87.62, 114.818], "includesElement__covalent_radius_cordero": [139.0, 195.0, 142.0], "includesElement__covalent_radius_pyykko": [120.0, 185.0, 142.0], "includesElement__covalent_radius_pyykko_double": [117.0, 157.0, 136.0], "includesElement__covalent_radius_pyykko_triple": [112.0, 139.0, 146.0], "includesElement__density": [12.0, 2.64, 7.31], "includesElement__dipole_polarizability": [26.14, 197.2, 65.0], "includesElement__dipole_polarizability_unc": [0.1, 0.2, 4.0], "includesElement__discovery_year": [1803, 1790, 1863], "includesElement__electron_affinity": [0.562, 0.048, 0.3], "includesElement__electronegativity_allred-rochow": [0.0004756944, 8.327246e-05, 0.0002479667], "includesElement__electronegativity_cottrell-sutton": [0.2389212, 0.1241185, 0.1876467], "includesElement__electronegativity_ghosh": [0.1440276, 0.1185082, 0.16423], "includesElement__electronegativity_gordy": [0.05708333, 0.01540541, 0.03521127], "includesElement__electronegativity_mulliken": [4.44943, 2.871434, 3.043178], "includesElement__electronegativity_nagle": [0.7259357, 0.2164584, 0.3587038], "includesElement__electronegativity_pauling": [2.2, 0.95, 1.78], "includesElement__electronegativity_sanderson": [1.124263, 0.2631786, 0.7172747], "includesElement__en_ghosh": [0.1440276, 0.1185082, 0.16423], "includesElement__en_pauling": [2.2, 0.95, 1.78], "includesElement__evaporation_heat": [372.4, 144.0, 225.1], "includesElement__fusion_heat": [17.24, 9.2, 3.24], "includesElement__glawe_number": [65, 15, 80], "includesElement__group_id": [10, 2, 13], "includesElement__heat_of_formation": [376.6, 164.0, 243.0], "includesElement__is_radioactive": [false], "includesElement__lattice_constant": [3.89, 6.08, 4.59], "includesElement__mendeleev_number": [68, 8, 84], "includesElement__molar_heat_capacity": [25.98, 26.79, 26.74], "includesElement__period": [5], "includesElement__pettifor_number": [69, 15, 79], "includesElement__specific_heat_capacity": [0.246, 0.306, 0.233], "includesElement__vdw_radius": [210.0, 249.0, 193.0], "includesElement__vdw_radius_alvarez": [215.0, 284.0, 243.0], "includesElement__vdw_radius_mm3": [237.0, 300.0, 264.0], "includesElement__vdw_radius_uff": [289.9, 364.1, 446.3], "includesElement__atomic_weight_uncertainty": [0.01, 0.001], "includesElement__c6_gb": [628.0, 3230.0, 643.0], "includesElement__electronegativity_allen": [9.402, 5.695, 9.793], "includesElement__en_allen": [9.402, 5.695, 9.793], "includesElement__metallic_radius": [128.0, 191.0, 142.0], "includesElement__metallic_radius_c12": [137.0, 215.0, 158.0], "includesElement__thermal_conductivity": [71.8, 81.8], "includesElement__vdw_radius_batsanov": [205.0, 255.0, 220.0], "includesElement__gas_basicity": [673.4], "includesElement__proton_affinity": [696.0], "includesElement__abundance_sea": [7.9, 0.02], "includesElement__covalent_radius_bragg": [195.0], "includesElement__c6": [3175.0, 779.0], "includesElement__vdw_radius_truhlar": [249.0], "includesElement__vdw_radius_dreiding": [459.0], "includesElement__vdw_radius_bondi": [193.0], "formula": ["In8Pd2Sr2"], "spacegroup": ["63"], "thermalConductivity": [0.854459], "icsd": ["418179"], "band_gap": [0.0], "density": [7.302085], "density_atomic": [24.76119], "deprecated": [false], "efermi": [6.298093], "energy_above_hull": [0.0], "energy_per_atom": [-3.425773], "formation_energy_per_atom": [-0.4409389], "homogeneous_poisson": [0.279], "is_gap_direct": [false], "is_magnetic": [false], "is_metal": [true], "is_stable": [true], "nelements": [3], "nsites": [12], "num_magnetic_sites": [0], "num_unique_magnetic_sites": [0], "theoretical": [false], "total_magnetization": [1e-07], "total_magnetization_normalized_formula_units": [5e-08], "total_magnetization_normalized_vol": [3.365481e-10], "uncorrected_energy_per_atom": [-21.94698], "universal_anisotropy": [0.564], "volume": [297.1343], "equilibrium_reaction_energy_per_atom": [-0.008873627]}