{"includesElement": ["", "O", "In", "H"], "includesElement___series_id": [1, 7], "includesElement__abundance_crust": [461000.0, 0.25, 1400.0], "includesElement__atomic_number": [8, 49, 1], "includesElement__atomic_radius": [60.0, 155.0, 25.0], "includesElement__atomic_radius_rahm": [171.0, 246.0, 154.0], "includesElement__atomic_volume": [14.0, 15.7, 14.1], "includesElement__atomic_weight": [15.999, 114.818, 1.008], "includesElement__covalent_radius_cordero": [66.0, 142.0, 31.0], "includesElement__covalent_radius_pyykko": [63.0, 142.0, 32.0], "includesElement__covalent_radius_pyykko_double": [57.0, 136.0], "includesElement__covalent_radius_pyykko_triple": [53.0, 146.0], "includesElement__density": [0.001308, 7.31, 8.2e-05], "includesElement__dipole_polarizability": [5.3, 65.0, 4.50711], "includesElement__dipole_polarizability_unc": [0.2, 4.0, 3e-05], "includesElement__discovery_year": [1774, 1863, 1766], "includesElement__electron_affinity": [1.461113, 0.3, 0.754195], "includesElement__electronegativity_allred-rochow": [0.001146384, 0.0002479667, 0.0009765625], "includesElement__electronegativity_cottrell-sutton": [0.2687419, 0.1876467, 0.1767767], "includesElement__electronegativity_ghosh": [0.304575, 0.16423, 0.2638], "includesElement__electronegativity_gordy": [0.07222222, 0.03521127, 0.03125], "includesElement__electronegativity_mulliken": [7.539584, 3.043178, 7.176315], "includesElement__electronegativity_nagle": [1.042218, 0.3587038, 0.6053882], "includesElement__electronegativity_pauling": [3.44, 1.78, 2.2], "includesElement__electronegativity_sanderson": [0.9416494, 0.7172747, 2.187771], "includesElement__en_ghosh": [0.304575, 0.16423, 0.2638], "includesElement__en_pauling": [3.44, 1.78, 2.2], "includesElement__glawe_number": [97, 80, 103], "includesElement__group_id": [16, 13, 1], "includesElement__heat_of_formation": [249.229, 243.0, 217.998], "includesElement__is_radioactive": [false], "includesElement__lattice_constant": [6.83, 4.59, 3.75], "includesElement__mendeleev_number": [99, 84, 105], "includesElement__molar_heat_capacity": [29.378, 26.74, 28.836], "includesElement__period": [2, 5, 1], "includesElement__pettifor_number": [101, 79, 103], "includesElement__specific_heat_capacity": [0.918, 0.233, 14.304], "includesElement__vdw_radius": [152.0, 193.0, 110.0], "includesElement__vdw_radius_alvarez": [150.0, 243.0, 120.0], "includesElement__vdw_radius_mm3": [182.0, 264.0, 162.0], "includesElement__vdw_radius_uff": [350.0, 446.3, 288.6], "includesElement__abundance_sea": [857000.0, 0.02, 108000.0], "includesElement__c6_gb": [16.7, 643.0, 6.51], "includesElement__covalent_radius_bragg": [65.0], "includesElement__electronegativity_allen": [21.36, 9.793, 13.61], "includesElement__en_allen": [21.36, 9.793, 13.61], "includesElement__thermal_conductivity": [0.027, 81.8, 0.1815], "includesElement__vdw_radius_batsanov": [155.0, 220.0], "includesElement__c6": [15.6, 779.0, 6.499027], "includesElement__vdw_radius_dreiding": [340.46, 459.0, 319.5], "includesElement__gas_basicity": [459.6], "includesElement__proton_affinity": [485.2], "includesElement__vdw_radius_bondi": [152.0, 193.0, 120.0], "includesElement__vdw_radius_rt": [158.0, 110.0], "includesElement__evaporation_heat": [225.1, 0.904], "includesElement__fusion_heat": [3.24, 0.117], "includesElement__atomic_weight_uncertainty": [0.001], "includesElement__metallic_radius": [142.0], "includesElement__metallic_radius_c12": [158.0, 78.0], "formula": ["H2In2O4"], "spacegroup": ["58"], "thermalConductivity": [6.12877], "icsd": ["166254"], "band_gap": [1.8668], "density": [6.24928], "density_atomic": [9.819881], "deprecated": [false], "efermi": [4.121659], "energy_above_hull": [0.01202834], "energy_per_atom": [-11.06563], "formation_energy_per_atom": [-1.576877], "is_gap_direct": [true], "is_magnetic": [false], "is_metal": [false], "is_stable": [false], "nelements": [3], "nsites": [8], "num_magnetic_sites": [0], "num_unique_magnetic_sites": [0], "theoretical": [false], "total_magnetization": [4e-07], "total_magnetization_normalized_formula_units": [2e-07], "total_magnetization_normalized_vol": [5.091711e-09], "uncorrected_energy_per_atom": [-11.06563], "volume": [78.55905], "cbm": [6.0053], "vbm": [4.1385]}