{"includesElement": ["", "Sn", "La", "Br"], "includesElement___series_id": [7, 9, 6], "includesElement__abundance_crust": [2.3, 39.0, 2.4], "includesElement__atomic_number": [50, 57, 35], "includesElement__atomic_radius": [145.0, 195.0, 115.0], "includesElement__atomic_radius_rahm": [248.0, 284.0, 219.0], "includesElement__atomic_volume": [16.3, 22.5, 23.5], "includesElement__atomic_weight": [118.71, 138.9055, 79.904], "includesElement__covalent_radius_cordero": [139.0, 207.0, 120.0], "includesElement__covalent_radius_pyykko": [140.0, 180.0, 114.0], "includesElement__covalent_radius_pyykko_double": [130.0, 139.0, 109.0], "includesElement__covalent_radius_pyykko_triple": [132.0, 139.0, 110.0], "includesElement__density": [7.287, 6.15, 3.1028], "includesElement__dipole_polarizability": [53.0, 215.0, 21.0], "includesElement__dipole_polarizability_unc": [6.0, 20.0, 1.0], "includesElement__electron_affinity": [1.112067, 0.47, 3.363588], "includesElement__electronegativity_allred-rochow": [0.0002882653, 9.259259e-05, 0.0005847953], "includesElement__electronegativity_cottrell-sutton": [0.2008909, 0.1290994, 0.2581989], "includesElement__electronegativity_ghosh": [0.178052, 0.163142, 0.2412578], "includesElement__electronegativity_gordy": [0.04035714, 0.01666667, 0.06666667], "includesElement__electronegativity_mulliken": [4.227992, 3.02345, 7.588699], "includesElement__electronegativity_nagle": [0.4225986, 0.240747, 0.6933613], "includesElement__electronegativity_pauling": [1.96, 1.1, 2.96], "includesElement__electronegativity_sanderson": [0.7622797, 0.3946505, 1.049026], "includesElement__en_ghosh": [0.178052, 0.163142, 0.2412578], "includesElement__en_pauling": [1.96, 1.1, 2.96], "includesElement__evaporation_heat": [296.0, 402.0, 29.56], "includesElement__fusion_heat": [7.07, 8.5, 10.57], "includesElement__glawe_number": [83, 32, 100], "includesElement__group_id": [14, 3, 17], "includesElement__heat_of_formation": [301.2, 431.0, 111.85], "includesElement__is_radioactive": [false], "includesElement__lattice_constant": [5.82, 3.75, 6.67], "includesElement__mendeleev_number": [90, 13, 108], "includesElement__molar_heat_capacity": [26.99, 27.11, 75.69], "includesElement__period": [5, 6, 4], "includesElement__pettifor_number": [83, 33, 98], "includesElement__specific_heat_capacity": [0.227, 0.195, 0.474], "includesElement__vdw_radius": [217.0, 243.0, 185.0], "includesElement__vdw_radius_alvarez": [242.0, 298.0, 186.0], "includesElement__vdw_radius_mm3": [259.0, 278.0, 222.0], "includesElement__vdw_radius_uff": [439.2, 352.2, 418.9], "includesElement__abundance_sea": [4e-06, 3.4e-06, 67.3], "includesElement__atomic_weight_uncertainty": [0.007, 7e-05], "includesElement__c6_gb": [715.0, 3730.0, 187.0], "includesElement__covalent_radius_bragg": [140.0, 119.0], "includesElement__electronegativity_allen": [10.79, 15.88], "includesElement__en_allen": [10.79, 15.88], "includesElement__metallic_radius": [142.0, 169.0], "includesElement__metallic_radius_c12": [163.0, 187.0, 117.0], "includesElement__thermal_conductivity": [66.8, 13.4, 0.005], "includesElement__vdw_radius_batsanov": [225.0, 250.0, 190.0], "includesElement__c6": [659.0, 162.0], "includesElement__vdw_radius_dreiding": [447.0, 395.0], "includesElement__vdw_radius_bondi": [217.0, 183.0], "includesElement__discovery_year": [1839, 1826], "includesElement__gas_basicity": [991.9, 531.2], "includesElement__proton_affinity": [1013.0, 554.4], "includesElement__vdw_radius_rt": [187.0], "formula": ["Br2La10Sn6"], "spacegroup": ["193"], "thermalConductivity": [1.59115], "icsd": ["95239"], "band_gap": [0.0], "density": [6.541253], "density_atomic": [31.88892], "deprecated": [false], "efermi": [7.824169], "energy_above_hull": [0.0], "energy_per_atom": [-5.296041], "formation_energy_per_atom": [-1.044732], "is_gap_direct": [false], "is_magnetic": [true], "is_metal": [true], "is_stable": [true], "nelements": [3], "nsites": [18], "num_magnetic_sites": [4], "num_unique_magnetic_sites": [2], "theoretical": [false], "total_magnetization": [3.978823], "total_magnetization_normalized_formula_units": [1.989412], "total_magnetization_normalized_vol": [0.006931741], "uncorrected_energy_per_atom": [-27.39866], "volume": [574.0005], "equilibrium_reaction_energy_per_atom": [-0.05937834]}