{"includesElement": ["", "Al", "N", "Zr"], "includesElement___series_id": [7, 1, 8], "includesElement__abundance_crust": [82300.0, 19.0, 165.0], "includesElement__atomic_number": [13, 7, 40], "includesElement__atomic_radius": [125.0, 65.0, 155.0], "includesElement__atomic_radius_rahm": [239.0, 179.0, 269.0], "includesElement__atomic_volume": [10.0, 17.3, 14.1], "includesElement__atomic_weight": [26.98154, 14.007, 91.224], "includesElement__covalent_radius_cordero": [121.0, 71.0, 175.0], "includesElement__covalent_radius_pyykko": [126.0, 71.0, 154.0], "includesElement__covalent_radius_pyykko_double": [113.0, 60.0, 127.0], "includesElement__covalent_radius_pyykko_triple": [111.0, 54.0, 121.0], "includesElement__density": [2.7, 0.001145, 6.52], "includesElement__dipole_polarizability": [57.8, 7.4, 112.0], "includesElement__dipole_polarizability_unc": [1.0, 0.2, 13.0], "includesElement__discovery_year": [1825, 1772, 1789], "includesElement__electron_affinity": [0.43283, -1.4, 0.426], "includesElement__electronegativity_allred-rochow": [0.0002204586, 0.000773656, 0.0001328217], "includesElement__electronegativity_cottrell-sutton": [0.1666667, 0.2343706, 0.1430194], "includesElement__electronegativity_ghosh": [0.150078, 0.26493, 0.1248887], "includesElement__electronegativity_gordy": [0.02777778, 0.05492958, 0.02045455], "includesElement__electronegativity_mulliken": [3.209299, 6.567065, 3.52995], "includesElement__electronegativity_nagle": [0.3730192, 0.8774979, 0.3293169], "includesElement__electronegativity_pauling": [1.61, 3.04, 1.33], "includesElement__electronegativity_sanderson": [0.2360927, 0.577482, 0.4744467], "includesElement__en_ghosh": [0.150078, 0.26493, 0.1248887], "includesElement__en_pauling": [1.61, 3.04, 1.33], "includesElement__evaporation_heat": [284.1, 567.0], "includesElement__fusion_heat": [10.75, 19.2], "includesElement__glawe_number": [78, 88, 49], "includesElement__group_id": [13, 15, 4], "includesElement__heat_of_formation": [330.9, 472.44, 610.0], "includesElement__is_radioactive": [false], "includesElement__lattice_constant": [4.05, 4.039, 3.23], "includesElement__mendeleev_number": [82, 93, 44], "includesElement__molar_heat_capacity": [24.2, 29.124, 25.36], "includesElement__period": [3, 2, 5], "includesElement__pettifor_number": [80, 100, 49], "includesElement__specific_heat_capacity": [0.897, 1.04, 0.278], "includesElement__vdw_radius": [184.0, 155.0, 223.0], "includesElement__vdw_radius_alvarez": [225.0, 166.0, 252.0], "includesElement__vdw_radius_mm3": [236.0, 193.0, 254.0], "includesElement__vdw_radius_uff": [449.9, 366.0, 312.4], "includesElement__abundance_sea": [0.002, 0.5, 3e-05], "includesElement__atomic_weight_uncertainty": [7e-07, 0.002], "includesElement__c6_gb": [520.0, 25.7, 1360.0], "includesElement__covalent_radius_bragg": [135.0, 65.0], "includesElement__electronegativity_allen": [9.539, 18.13, 7.808], "includesElement__en_allen": [9.539, 18.13, 7.808], "includesElement__metallic_radius": [125.0, 145.0], "includesElement__metallic_radius_c12": [143.0, 53.0, 160.0], "includesElement__thermal_conductivity": [237.0, 0.026, 22.7], "includesElement__vdw_radius_batsanov": [210.0, 160.0, 230.0], "includesElement__c6": [528.0, 24.2], "includesElement__is_monoisotopic": [true], "includesElement__vdw_radius_dreiding": [439.0, 366.21], "includesElement__vdw_radius_truhlar": [184.0], "includesElement__gas_basicity": [318.7], "includesElement__proton_affinity": [342.2], "includesElement__vdw_radius_bondi": [155.0], "includesElement__vdw_radius_rt": [164.0], "formula": ["Al2N2Zr6"], "spacegroup": ["63"], "thermalConductivity": [14.8153], "icsd": ["29521"], "band_gap": [0.0], "density": [5.971794], "density_atomic": [17.49912], "deprecated": [false], "efermi": [5.502504], "energy_above_hull": [0.0], "energy_per_atom": [-17.93955], "formation_energy_per_atom": [-1.117505], "is_gap_direct": [false], "is_magnetic": [false], "is_metal": [true], "is_stable": [true], "nelements": [3], "nsites": [10], "num_magnetic_sites": [0], "num_unique_magnetic_sites": [0], "theoretical": [false], "total_magnetization": [9e-07], "total_magnetization_normalized_formula_units": [4.5e-07], "total_magnetization_normalized_vol": [5.143117e-09], "uncorrected_energy_per_atom": [-17.93955], "volume": [174.9912], "equilibrium_reaction_energy_per_atom": [-0.04784171]}