{"includesElement": ["", "Hg", "Dy"], "includesElement___series_id": [8, 9], "includesElement__abundance_crust": [0.085, 5.2], "includesElement__atomic_number": [80, 66], "includesElement__atomic_radius": [150.0, 175.0], "includesElement__atomic_radius_rahm": [229.0, 275.0], "includesElement__atomic_volume": [14.8, 19.0], "includesElement__atomic_weight": [200.592, 162.5], "includesElement__covalent_radius_cordero": [132.0, 192.0], "includesElement__covalent_radius_pyykko": [133.0, 167.0], "includesElement__covalent_radius_pyykko_double": [142.0, 133.0], "includesElement__density": [13.5336, 8.55], "includesElement__dipole_polarizability": [33.91, 163.0], "includesElement__dipole_polarizability_unc": [0.34, 15.0], "includesElement__electronegativity_allred-rochow": [0.0002459155, 0.0001021908], "includesElement__electronegativity_cottrell-sutton": [0.1808501, 0.1306364], "includesElement__electronegativity_ghosh": [0.169, 0.20333], "includesElement__electronegativity_gordy": [0.03270677, 0.01706587], "includesElement__electronegativity_mulliken": [5.218752, 3.145525], "includesElement__electronegativity_nagle": [0.7073231, 0.4191131], "includesElement__electronegativity_pauling": [1.9, 1.22], "includesElement__electronegativity_sanderson": [1.164789, 0.5297338], "includesElement__en_ghosh": [0.169, 0.20333], "includesElement__en_pauling": [1.9, 1.22], "includesElement__evaporation_heat": [58.5, 291.0], "includesElement__fusion_heat": [2.295], "includesElement__glawe_number": [76, 24], "includesElement__group_id": [12], "includesElement__heat_of_formation": [61.38, 290.4], "includesElement__is_radioactive": [false], "includesElement__lattice_constant": [2.99, 3.59], "includesElement__mendeleev_number": [79, 31], "includesElement__molar_heat_capacity": [27.983, 28.16], "includesElement__period": [6], "includesElement__pettifor_number": [74, 25], "includesElement__specific_heat_capacity": [0.14, 0.173], "includesElement__vdw_radius": [223.0, 231.0], "includesElement__vdw_radius_alvarez": [245.0, 287.0], "includesElement__vdw_radius_mm3": [253.0, 290.0], "includesElement__vdw_radius_uff": [270.5, 342.8], "includesElement__abundance_sea": [3e-05, 9.1e-07], "includesElement__atomic_weight_uncertainty": [0.003, 0.001], "includesElement__c6_gb": [268.0, 2430.0], "includesElement__electronegativity_allen": [10.44], "includesElement__en_allen": [10.44], "includesElement__metallic_radius": [139.0], "includesElement__metallic_radius_c12": [151.0], "includesElement__thermal_conductivity": [8.3, 10.7], "includesElement__vdw_radius_batsanov": [205.0], "includesElement__discovery_year": [1886], "includesElement__electron_affinity": [0.352], "formula": ["Dy2Hg6"], "spacegroup": ["194"], "thermalConductivity": [0.468047], "icsd": ["629833"], "band_gap": [0.0], "density": [13.59646], "density_atomic": [23.33513], "deprecated": [false], "efermi": [3.552206], "energy_above_hull": [0.0], "energy_per_atom": [-45.42799], "formation_energy_per_atom": [-0.4066806], "is_gap_direct": [false], "is_magnetic": [false], "is_metal": [true], "is_stable": [true], "nelements": [2], "nsites": [8], "num_magnetic_sites": [0], "num_unique_magnetic_sites": [0], "theoretical": [false], "total_magnetization": [0.0], "total_magnetization_normalized_formula_units": [0.0], "total_magnetization_normalized_vol": [0.0], "uncorrected_energy_per_atom": [-45.42799], "volume": [186.681], "equilibrium_reaction_energy_per_atom": [-0.05638777]}