{"includesElement": ["", "Sn", "Fe", "Ru"], "includesElement___series_id": [7, 8], "includesElement__abundance_crust": [2.3, 56300.0, 0.001], "includesElement__atomic_number": [50, 26, 44], "includesElement__atomic_radius": [145.0, 140.0, 130.0], "includesElement__atomic_radius_rahm": [248.0, 237.0], "includesElement__atomic_volume": [16.3, 7.1, 8.3], "includesElement__atomic_weight": [118.71, 55.845, 101.07], "includesElement__covalent_radius_cordero": [139.0, 142.0, 146.0], "includesElement__covalent_radius_pyykko": [140.0, 116.0, 125.0], "includesElement__covalent_radius_pyykko_double": [130.0, 109.0, 114.0], "includesElement__covalent_radius_pyykko_triple": [132.0, 102.0, 103.0], "includesElement__density": [7.287, 7.87, 12.1], "includesElement__dipole_polarizability": [53.0, 62.0, 72.0], "includesElement__dipole_polarizability_unc": [6.0, 4.0, 10.0], "includesElement__electron_affinity": [1.112067, 0.151, 1.05], "includesElement__electronegativity_allred-rochow": [0.0002882653, 0.0002786861, 0.000208], "includesElement__electronegativity_cottrell-sutton": [0.2008909, 0.1797987, 0.1612452], "includesElement__electronegativity_ghosh": [0.178052, 0.1392532, 0.1376494], "includesElement__electronegativity_gordy": [0.04035714, 0.03232759, 0.026], "includesElement__electronegativity_mulliken": [4.227992, 4.026734, 4.20525], "includesElement__electronegativity_nagle": [0.4225986, 0.5053195, 0.4807499], "includesElement__electronegativity_pauling": [1.96, 1.83, 2.2], "includesElement__electronegativity_sanderson": [0.7622797, 0.748727, 0.9579373], "includesElement__en_ghosh": [0.178052, 0.1392532, 0.1376494], "includesElement__en_pauling": [1.96, 1.83, 2.2], "includesElement__evaporation_heat": [296.0, 340.0], "includesElement__fusion_heat": [7.07, 13.8, 25.5], "includesElement__glawe_number": [83, 71, 61], "includesElement__group_id": [14, 8], "includesElement__heat_of_formation": [301.2, 415.5, 650.6], "includesElement__is_radioactive": [false], "includesElement__lattice_constant": [5.82, 2.87, 2.7], "includesElement__mendeleev_number": [90, 59, 60], "includesElement__molar_heat_capacity": [26.99, 25.1, 24.06], "includesElement__period": [5, 4], "includesElement__pettifor_number": [83, 61, 63], "includesElement__specific_heat_capacity": [0.227, 0.449, 0.238], "includesElement__vdw_radius": [217.0, 204.0, 213.0], "includesElement__vdw_radius_alvarez": [242.0, 244.0, 246.0], "includesElement__vdw_radius_mm3": [259.0, 223.0, 234.0], "includesElement__vdw_radius_uff": [439.2, 291.2, 296.3], "includesElement__abundance_sea": [4e-06, 0.002, 7e-07], "includesElement__atomic_weight_uncertainty": [0.007, 0.002, 0.02], "includesElement__c6_gb": [715.0, 548.0, 809.0], "includesElement__covalent_radius_bragg": [140.0], "includesElement__electronegativity_allen": [10.79, 10.64, 9.1], "includesElement__en_allen": [10.79, 10.64, 9.1], "includesElement__metallic_radius": [142.0, 117.0, 125.0], "includesElement__metallic_radius_c12": [163.0, 126.0, 134.0], "includesElement__thermal_conductivity": [66.8, 80.4, 117.0], "includesElement__vdw_radius_batsanov": [225.0, 205.0], "includesElement__c6": [659.0, 482.0], "includesElement__vdw_radius_dreiding": [447.0], "includesElement__vdw_radius_bondi": [217.0], "includesElement__gas_basicity": [731.1, 751.4], "includesElement__proton_affinity": [754.0, 774.0], "includesElement__discovery_year": [1844], "formula": ["Fe1Ru2Sn1"], "spacegroup": ["225"], "thermalConductivity": [6.25432], "icsd": ["103615"], "band_gap": [0.0], "density": [10.6346], "density_atomic": [14.70476], "deprecated": [false], "efermi": [8.915396], "energy_above_hull": [0.05873315], "energy_per_atom": [-7.773446], "formation_energy_per_atom": [-0.01634689], "homogeneous_poisson": [0.307], "is_gap_direct": [false], "is_magnetic": [true], "is_metal": [true], "is_stable": [false], "nelements": [3], "nsites": [4], "num_magnetic_sites": [3], "num_unique_magnetic_sites": [2], "theoretical": [false], "total_magnetization": [4.092966], "total_magnetization_normalized_formula_units": [4.092966], "total_magnetization_normalized_vol": [0.06958574], "uncorrected_energy_per_atom": [-7.773446], "universal_anisotropy": [0.262], "volume": [58.81904]}