{"includesElement": ["", "Hg", "Sb", "K"], "includesElement___series_id": [8, 5, 3], "includesElement__abundance_crust": [0.085, 0.2, 20900.0], "includesElement__atomic_number": [80, 51, 19], "includesElement__atomic_radius": [150.0, 145.0, 220.0], "includesElement__atomic_radius_rahm": [229.0, 246.0, 234.0], "includesElement__atomic_volume": [14.8, 18.4, 45.3], "includesElement__atomic_weight": [200.592, 121.76, 39.0983], "includesElement__covalent_radius_cordero": [132.0, 139.0, 203.0], "includesElement__covalent_radius_pyykko": [133.0, 140.0, 196.0], "includesElement__covalent_radius_pyykko_double": [142.0, 133.0, 193.0], "includesElement__density": [13.5336, 6.68, 0.89], "includesElement__dipole_polarizability": [33.91, 43.0, 289.7], "includesElement__dipole_polarizability_unc": [0.34, 2.0, 0.3], "includesElement__electronegativity_allred-rochow": [0.0002459155, 0.0003214286, 5.726781e-05], "includesElement__electronegativity_cottrell-sutton": [0.1808501, 0.212132, 0.1059457], "includesElement__electronegativity_ghosh": [0.169, 0.1918774, 0.0981896], "includesElement__electronegativity_gordy": [0.03270677, 0.045, 0.01122449], "includesElement__electronegativity_mulliken": [5.218752, 4.827195, 2.421067], "includesElement__electronegativity_nagle": [0.7073231, 0.4880907, 0.1511299], "includesElement__electronegativity_pauling": [1.9, 2.05, 0.82], "includesElement__electronegativity_sanderson": [1.164789, 0.7762722, 0.1218383], "includesElement__en_ghosh": [0.169, 0.1918774, 0.0981896], "includesElement__en_pauling": [1.9, 2.05, 0.82], "includesElement__evaporation_heat": [58.5, 195.2, 2.33], "includesElement__fusion_heat": [2.295, 20.08, 102.5], "includesElement__glawe_number": [76, 91, 10], "includesElement__group_id": [12, 15, 1], "includesElement__heat_of_formation": [61.38, 264.4, 89.0], "includesElement__is_radioactive": [false], "includesElement__lattice_constant": [2.99, 4.51, 5.23], "includesElement__mendeleev_number": [79, 96, 3], "includesElement__molar_heat_capacity": [27.983, 25.23, 29.6], "includesElement__period": [6, 5, 4], "includesElement__pettifor_number": [74, 88, 10], "includesElement__specific_heat_capacity": [0.14, 0.207, 0.757], "includesElement__vdw_radius": [223.0, 206.0, 275.0], "includesElement__vdw_radius_alvarez": [245.0, 247.0, 273.0], "includesElement__vdw_radius_mm3": [253.0, 252.0, 309.0], "includesElement__vdw_radius_uff": [270.5, 442.0, 381.2], "includesElement__abundance_sea": [3e-05, 0.00024, 399.0], "includesElement__atomic_weight_uncertainty": [0.003, 0.001, 0.0001], "includesElement__c6_gb": [268.0, 504.0, 3910.0], "includesElement__electronegativity_allen": [10.44, 11.74, 4.34], "includesElement__en_allen": [10.44, 11.74, 4.34], "includesElement__metallic_radius": [139.0, 203.0], "includesElement__metallic_radius_c12": [151.0, 166.0, 235.0], "includesElement__thermal_conductivity": [8.3, 24.43, 79.0], "includesElement__vdw_radius_batsanov": [205.0, 220.0, 280.0], "includesElement__covalent_radius_pyykko_triple": [127.0], "includesElement__electron_affinity": [1.046, 0.50147], "includesElement__covalent_radius_bragg": [140.0, 207.0], "includesElement__c6": [492.0, 3923.0], "includesElement__vdw_radius_dreiding": [435.0], "includesElement__vdw_radius_truhlar": [206.0], "includesElement__discovery_year": [1807], "includesElement__vdw_radius_bondi": [275.0], "formula": ["Hg2K2Sb2"], "spacegroup": ["194"], "thermalConductivity": [0.858288], "icsd": ["56201"], "band_gap": [0.0], "density": [5.754185], "density_atomic": [34.76884], "deprecated": [false], "efermi": [2.088573], "energy_above_hull": [0.0], "energy_per_atom": [-27.48547], "formation_energy_per_atom": [-0.454672], "is_gap_direct": [false], "is_magnetic": [false], "is_metal": [true], "is_stable": [true], "nelements": [3], "nsites": [6], "num_magnetic_sites": [0], "num_unique_magnetic_sites": [0], "theoretical": [false], "total_magnetization": [0.0], "total_magnetization_normalized_formula_units": [0.0], "total_magnetization_normalized_vol": [0.0], "uncorrected_energy_per_atom": [-27.48547], "volume": [208.6131], "equilibrium_reaction_energy_per_atom": [-0.07094027]}