{"includesElement": ["", "Te", "Pr"], "includesElement___series_id": [5, 9], "includesElement__abundance_crust": [0.001, 9.2], "includesElement__atomic_number": [52, 59], "includesElement__atomic_radius": [140.0, 185.0], "includesElement__atomic_radius_rahm": [242.0, 286.0], "includesElement__atomic_volume": [20.5, 20.8], "includesElement__atomic_weight": [127.6, 140.9077], "includesElement__covalent_radius_cordero": [138.0, 203.0], "includesElement__covalent_radius_pyykko": [136.0, 176.0], "includesElement__covalent_radius_pyykko_double": [128.0, 138.0], "includesElement__covalent_radius_pyykko_triple": [121.0, 128.0], "includesElement__density": [6.232, 6.773], "includesElement__dipole_polarizability": [38.0, 216.0], "includesElement__dipole_polarizability_unc": [4.0, 20.0], "includesElement__discovery_year": [1782, 1885], "includesElement__electron_affinity": [1.970876, 0.962], "includesElement__electronegativity_allred-rochow": [0.0003757569, 9.200671e-05], "includesElement__electronegativity_cottrell-sutton": [0.2260596, 0.1272524], "includesElement__electronegativity_ghosh": [0.2056992, 0.17208], "includesElement__electronegativity_gordy": [0.05110294, 0.01619318], "includesElement__electronegativity_mulliken": [5.490268, 3.2175], "includesElement__electronegativity_nagle": [0.5404919, 0.284996], "includesElement__electronegativity_pauling": [2.1, 1.13], "includesElement__electronegativity_sanderson": [0.8622506, 0.428804], "includesElement__en_ghosh": [0.2056992, 0.17208], "includesElement__en_pauling": [2.1, 1.13], "includesElement__evaporation_heat": [49.8, 331.0], "includesElement__fusion_heat": [17.91, 11.3], "includesElement__glawe_number": [94, 30], "includesElement__group_id": [16], "includesElement__heat_of_formation": [196.6, 356.9], "includesElement__is_radioactive": [false], "includesElement__lattice_constant": [4.45, 3.67], "includesElement__mendeleev_number": [102, 17], "includesElement__molar_heat_capacity": [25.73, 27.2], "includesElement__period": [5, 6], "includesElement__pettifor_number": [92, 31], "includesElement__specific_heat_capacity": [0.202, 0.193], "includesElement__vdw_radius": [206.0, 240.0], "includesElement__vdw_radius_alvarez": [199.0, 292.0], "includesElement__vdw_radius_mm3": [244.0, 273.0], "includesElement__vdw_radius_uff": [447.0, 360.6], "includesElement__atomic_weight_uncertainty": [0.03, 2e-05], "includesElement__c6_gb": [471.0, 3760.0], "includesElement__covalent_radius_bragg": [133.0], "includesElement__electronegativity_allen": [12.76], "includesElement__en_allen": [12.76], "includesElement__metallic_radius": [137.0], "includesElement__metallic_radius_c12": [160.0], "includesElement__thermal_conductivity": [14.3, 12.5], "includesElement__vdw_radius_batsanov": [210.0], "includesElement__c6": [445.0], "includesElement__vdw_radius_dreiding": [423.0], "includesElement__vdw_radius_bondi": [206.0], "includesElement__abundance_sea": [6.4e-07], "includesElement__is_monoisotopic": [true], "formula": ["Pr1Te1"], "spacegroup": ["221"], "thermalConductivity": [3.63328], "icsd": ["77936"], "band_gap": [0.0], "density": [7.472848], "density_atomic": [29.8325], "deprecated": [false], "efermi": [6.170072], "energy_above_hull": [0.09212754], "energy_per_atom": [-28.99147], "formation_energy_per_atom": [-1.580882], "homogeneous_poisson": [0.244], "is_gap_direct": [false], "is_magnetic": [true], "is_metal": [true], "is_stable": [false], "nelements": [2], "nsites": [2], "num_magnetic_sites": [1], "num_unique_magnetic_sites": [1], "theoretical": [false], "total_magnetization": [0.5188723], "total_magnetization_normalized_formula_units": [0.5188723], "total_magnetization_normalized_vol": [0.008696427], "uncorrected_energy_per_atom": [-5.307654], "universal_anisotropy": [0.145], "volume": [59.665]}