{"includesElement": ["", "Ba", "Rh", "B"], "includesElement___series_id": [4, 8, 5], "includesElement__abundance_crust": [425.0, 0.001, 10.0], "includesElement__atomic_number": [56, 45, 5], "includesElement__atomic_radius": [215.0, 135.0, 85.0], "includesElement__atomic_radius_rahm": [293.0, 233.0, 205.0], "includesElement__atomic_volume": [39.0, 8.3, 4.6], "includesElement__atomic_weight": [137.327, 102.9055, 10.81], "includesElement__covalent_radius_cordero": [215.0, 142.0, 84.0], "includesElement__covalent_radius_pyykko": [196.0, 125.0, 85.0], "includesElement__covalent_radius_pyykko_double": [161.0, 110.0, 78.0], "includesElement__covalent_radius_pyykko_triple": [149.0, 106.0, 73.0], "includesElement__density": [3.62, 12.4, 2.34], "includesElement__dipole_polarizability": [272.0, 66.0, 20.5], "includesElement__dipole_polarizability_unc": [10.0, 0.1], "includesElement__discovery_year": [1808, 1803], "includesElement__electron_affinity": [0.14462, 1.137, 0.279723], "includesElement__electronegativity_allred-rochow": [7.418784e-05, 0.0002176, 0.0003598616], "includesElement__electronegativity_cottrell-sutton": [0.1205853, 0.1649242, 0.1748949], "includesElement__electronegativity_ghosh": [0.1586786, 0.1408379, 0.184886], "includesElement__electronegativity_gordy": [0.01454082, 0.0272, 0.03058824], "includesElement__electronegativity_mulliken": [2.678142, 4.29795, 4.288871], "includesElement__electronegativity_nagle": [0.1944556, 0.5147142, 0.5269739], "includesElement__electronegativity_pauling": [0.89, 2.28, 2.04], "includesElement__electronegativity_sanderson": [0.3032951, 0.9761915, 0.2546274], "includesElement__en_ghosh": [0.1586786, 0.1408379, 0.184886], "includesElement__en_pauling": [0.89, 2.28, 2.04], "includesElement__evaporation_heat": [142.0, 494.0, 504.5], "includesElement__fusion_heat": [7.66, 21.8, 23.6], "includesElement__glawe_number": [14, 63, 86], "includesElement__group_id": [2, 9, 13], "includesElement__heat_of_formation": [179.1, 556.0, 565.0], "includesElement__is_radioactive": [false], "includesElement__lattice_constant": [5.02, 3.8, 8.73], "includesElement__mendeleev_number": [9, 64, 81], "includesElement__molar_heat_capacity": [28.07, 24.98, 11.087], "includesElement__period": [6, 5, 2], "includesElement__pettifor_number": [14, 66, 86], "includesElement__specific_heat_capacity": [0.204, 0.243, 1.026], "includesElement__vdw_radius": [268.0, 210.0, 192.0], "includesElement__vdw_radius_alvarez": [303.0, 244.0, 191.0], "includesElement__vdw_radius_mm3": [307.0, 234.0, 215.0], "includesElement__vdw_radius_uff": [370.3, 292.9, 408.3], "includesElement__abundance_sea": [0.013, 4.44], "includesElement__atomic_weight_uncertainty": [0.007, 2e-05], "includesElement__c6_gb": [5540.0, 708.0, 99.2], "includesElement__covalent_radius_bragg": [210.0], "includesElement__electronegativity_allen": [5.211, 9.259, 12.13], "includesElement__en_allen": [5.211, 9.259, 12.13], "includesElement__metallic_radius": [198.0, 125.0, 80.0], "includesElement__metallic_radius_c12": [222.0, 134.0, 98.0], "includesElement__vdw_radius_batsanov": [270.0, 200.0, 180.0], "includesElement__vdw_radius_truhlar": [268.0, 192.0], "includesElement__thermal_conductivity": [150.0, 27.4], "includesElement__is_monoisotopic": [true], "includesElement__gas_basicity": [745.4], "includesElement__proton_affinity": [768.0], "includesElement__c6": [99.5], "includesElement__vdw_radius_dreiding": [402.0], "formula": ["B2Ba1Rh2"], "spacegroup": ["139"], "thermalConductivity": [9.93763], "icsd": ["8155"], "band_gap": [0.0], "density": [6.881865], "density_atomic": [17.60273], "deprecated": [false], "efermi": [4.591011], "energy_above_hull": [0.0], "energy_per_atom": [-6.468526], "formation_energy_per_atom": [-0.4672511], "homogeneous_poisson": [0.252], "is_gap_direct": [false], "is_magnetic": [false], "is_metal": [true], "is_stable": [true], "nelements": [3], "nsites": [5], "num_magnetic_sites": [0], "num_unique_magnetic_sites": [0], "theoretical": [false], "total_magnetization": [0.0], "total_magnetization_normalized_formula_units": [0.0], "total_magnetization_normalized_vol": [0.0], "uncorrected_energy_per_atom": [-18.44541], "universal_anisotropy": [2.451], "volume": [88.01367], "equilibrium_reaction_energy_per_atom": [-0.1648812]}