{"includesElement": ["", "As", "Zn", "Ge"], "includesElement___series_id": [5, 8], "includesElement__abundance_crust": [1.8, 70.0, 1.5], "includesElement__atomic_number": [33, 30, 32], "includesElement__atomic_radius": [115.0, 135.0, 125.0], "includesElement__atomic_radius_rahm": [231.0, 222.0, 234.0], "includesElement__atomic_volume": [13.1, 9.2, 13.6], "includesElement__atomic_weight": [74.92159, 65.38, 72.63], "includesElement__covalent_radius_cordero": [119.0, 122.0, 120.0], "includesElement__covalent_radius_pyykko": [121.0, 118.0], "includesElement__covalent_radius_pyykko_double": [114.0, 120.0, 111.0], "includesElement__covalent_radius_pyykko_triple": [106.0, 114.0], "includesElement__density": [5.75, 7.134, 5.3234], "includesElement__dipole_polarizability": [30.0, 38.67, 40.0], "includesElement__dipole_polarizability_unc": [1.0, 0.3], "includesElement__electron_affinity": [0.804, 1.232712], "includesElement__electronegativity_allred-rochow": [0.0004302985, 0.0003124102, 0.0003859026], "includesElement__electronegativity_cottrell-sutton": [0.22818, 0.1920011, 0.2160884], "includesElement__electronegativity_ghosh": [0.2068208, 0.1551518, 0.1895892], "includesElement__electronegativity_gordy": [0.05206612, 0.03686441, 0.04669421], "includesElement__electronegativity_mulliken": [5.2965, 4.6971, 4.566073], "includesElement__electronegativity_nagle": [0.5503212, 0.6770213, 0.4641589], "includesElement__electronegativity_pauling": [2.18, 1.65, 2.01], "includesElement__electronegativity_sanderson": [0.8253373, 0.8100877, 0.8001471], "includesElement__en_ghosh": [0.2068208, 0.1551518, 0.1895892], "includesElement__en_pauling": [2.18, 1.65, 2.01], "includesElement__evaporation_heat": [32.4, 114.8, 328.0], "includesElement__glawe_number": [90, 74, 84], "includesElement__group_id": [15, 12, 14], "includesElement__heat_of_formation": [302.5, 130.4, 372.0], "includesElement__is_radioactive": [false], "includesElement__lattice_constant": [4.13, 2.66, 5.66], "includesElement__mendeleev_number": [95, 77, 89], "includesElement__molar_heat_capacity": [24.64, 25.39, 23.222], "includesElement__period": [4], "includesElement__pettifor_number": [89, 76, 84], "includesElement__specific_heat_capacity": [0.329, 0.388, 0.32], "includesElement__vdw_radius": [185.0, 201.0, 211.0], "includesElement__vdw_radius_alvarez": [188.0, 239.0, 229.0], "includesElement__vdw_radius_mm3": [236.0, 229.0, 244.0], "includesElement__vdw_radius_uff": [423.0, 276.3, 428.0], "includesElement__abundance_sea": [0.0037, 0.0049, 5e-05], "includesElement__atomic_weight_uncertainty": [6e-06, 0.02, 0.008], "includesElement__c6_gb": [260.0, 276.0, 365.0], "includesElement__covalent_radius_bragg": [126.0, 132.0], "includesElement__electronegativity_allen": [13.08, 9.395, 11.8], "includesElement__en_allen": [13.08, 9.395, 11.8], "includesElement__metallic_radius": [121.0, 124.0], "includesElement__metallic_radius_c12": [148.0, 134.0, 144.0], "includesElement__vdw_radius_batsanov": [205.0, 210.0], "includesElement__c6": [246.0, 284.0, 354.0], "includesElement__is_monoisotopic": [true], "includesElement__vdw_radius_dreiding": [415.0, 427.0], "includesElement__vdw_radius_bondi": [185.0], "includesElement__fusion_heat": [7.28, 36.8], "includesElement__thermal_conductivity": [116.0, 60.2], "includesElement__gas_basicity": [586.0], "includesElement__proton_affinity": [608.6], "includesElement__discovery_year": [1886], "includesElement__vdw_radius_truhlar": [211.0], "formula": ["As4Ge2Zn2"], "spacegroup": ["122"], "thermalConductivity": [3.08327, 3.16403], "icsd": ["16735", "610626"], "band_gap": [0.0012], "density": [5.300387], "density_atomic": [22.54818], "deprecated": [false], "efermi": [3.184028], "energy_above_hull": [0.0], "energy_per_atom": [-3.965368], "formation_energy_per_atom": [-0.1596135], "homogeneous_poisson": [0.241], "is_gap_direct": [true], "is_magnetic": [false], "is_metal": [false], "is_stable": [true], "nelements": [3], "nsites": [8], "num_magnetic_sites": [0], "num_unique_magnetic_sites": [0], "theoretical": [false], "total_magnetization": [0.0], "total_magnetization_normalized_formula_units": [0.0], "total_magnetization_normalized_vol": [0.0], "uncorrected_energy_per_atom": [-13.2774], "universal_anisotropy": [0.443], "volume": [180.3854], "cbm": [3.1841], "e_electronic": [17.78111], "e_ionic": [1.800631], "e_total": [19.58174], "equilibrium_reaction_energy_per_atom": [-0.04787047], "n": [4.216765], "vbm": [3.1829], "e_ij_max": [0.21275]}