{"includesElement": ["", "Cd", "C"], "includesElement___series_id": [8, 1], "includesElement__abundance_crust": [0.15, 200.0], "includesElement__atomic_number": [48, 6], "includesElement__atomic_radius": [155.0, 70.0], "includesElement__atomic_radius_rahm": [238.0, 190.0], "includesElement__atomic_volume": [13.1, 5.3], "includesElement__atomic_weight": [112.414, 12.011], "includesElement__covalent_radius_cordero": [144.0, 73.0], "includesElement__covalent_radius_pyykko": [136.0, 75.0], "includesElement__covalent_radius_pyykko_double": [144.0, 67.0], "includesElement__density": [8.69, 2.2], "includesElement__dipole_polarizability": [46.0, 11.3], "includesElement__dipole_polarizability_unc": [2.0, 0.2], "includesElement__discovery_year": [1817], "includesElement__electronegativity_allred-rochow": [0.000235186, 0.0005777778], "includesElement__electronegativity_cottrell-sutton": [0.1788443, 0.2081666], "includesElement__electronegativity_ghosh": [0.1504066, 0.224776], "includesElement__electronegativity_gordy": [0.03198529, 0.04333333], "includesElement__electronegativity_mulliken": [4.496911, 6.261208], "includesElement__electronegativity_nagle": [0.6389612, 0.7073926], "includesElement__electronegativity_pauling": [1.69, 2.55], "includesElement__electronegativity_sanderson": [0.801562, 0.427525], "includesElement__en_ghosh": [0.1504066, 0.224776], "includesElement__en_pauling": [1.69, 2.55], "includesElement__evaporation_heat": [59.1], "includesElement__fusion_heat": [6.11], "includesElement__glawe_number": [75, 87], "includesElement__group_id": [12, 14], "includesElement__heat_of_formation": [111.8, 716.87], "includesElement__is_radioactive": [false], "includesElement__lattice_constant": [2.98, 3.57], "includesElement__mendeleev_number": [78, 87], "includesElement__molar_heat_capacity": [26.02, 8.517], "includesElement__period": [5, 2], "includesElement__pettifor_number": [75, 95], "includesElement__specific_heat_capacity": [0.232, 0.709], "includesElement__vdw_radius": [218.0, 170.0], "includesElement__vdw_radius_alvarez": [249.0, 177.0], "includesElement__vdw_radius_mm3": [250.0, 204.0], "includesElement__vdw_radius_uff": [284.8, 385.1], "includesElement__abundance_sea": [0.00011, 28.0], "includesElement__atomic_weight_uncertainty": [0.004], "includesElement__c6_gb": [405.0, 47.9], "includesElement__covalent_radius_bragg": [160.0, 77.0], "includesElement__electronegativity_allen": [8.995, 15.05], "includesElement__en_allen": [8.995, 15.05], "includesElement__metallic_radius": [138.0], "includesElement__metallic_radius_c12": [151.0, 86.0], "includesElement__thermal_conductivity": [96.9, 1.59], "includesElement__vdw_radius_batsanov": [220.0, 170.0], "includesElement__covalent_radius_pyykko_triple": [60.0], "includesElement__electron_affinity": [1.262119], "includesElement__c6": [46.6], "includesElement__vdw_radius_dreiding": [389.83], "includesElement__vdw_radius_bondi": [170.0], "includesElement__vdw_radius_rt": [177.0], "formula": ["C1Cd1"], "spacegroup": ["225"], "thermalConductivity": [2.96884], "icsd": ["183177"], "band_gap": [0.0], "density": [7.216164], "density_atomic": [14.31558], "deprecated": [false], "efermi": [3.140177], "energy_above_hull": [2.008669], "energy_per_atom": [-3.085669], "formation_energy_per_atom": [2.008669], "homogeneous_poisson": [0.37], "is_gap_direct": [false], "is_magnetic": [false], "is_metal": [true], "is_stable": [false], "nelements": [2], "nsites": [2], "num_magnetic_sites": [0], "num_unique_magnetic_sites": [0], "theoretical": [true], "total_magnetization": [0.0063349], "total_magnetization_normalized_formula_units": [0.0063349], "total_magnetization_normalized_vol": [0.000221259], "uncorrected_energy_per_atom": [-3.085669], "universal_anisotropy": [1.005], "volume": [28.63115]}