{"includesElement": ["", "Ca", "N", "Cr"], "includesElement___series_id": [4, 1, 8], "includesElement__abundance_crust": [41500.0, 19.0, 102.0], "includesElement__atomic_number": [20, 7, 24], "includesElement__atomic_radius": [180.0, 65.0, 140.0], "includesElement__atomic_radius_rahm": [270.0, 179.0, 233.0], "includesElement__atomic_volume": [29.9, 17.3, 7.23], "includesElement__atomic_weight": [40.078, 14.007, 51.9961], "includesElement__covalent_radius_cordero": [176.0, 71.0, 139.0], "includesElement__covalent_radius_pyykko": [171.0, 71.0, 122.0], "includesElement__covalent_radius_pyykko_double": [147.0, 60.0, 111.0], "includesElement__covalent_radius_pyykko_triple": [133.0, 54.0, 103.0], "includesElement__density": [1.54, 0.001145, 7.15], "includesElement__dipole_polarizability": [160.8, 7.4, 83.0], "includesElement__dipole_polarizability_unc": [4.0, 0.2, 12.0], "includesElement__discovery_year": [1808, 1772, 1797], "includesElement__electron_affinity": [0.02455, -1.4, 0.666], "includesElement__electronegativity_allred-rochow": [9.746589e-05, 0.000773656, 0.0001981994], "includesElement__electronegativity_cottrell-sutton": [0.1290994, 0.2343706, 0.1555003], "includesElement__electronegativity_ghosh": [0.1154119, 0.26493, 0.1313053], "includesElement__electronegativity_gordy": [0.01666667, 0.05492958, 0.02418033], "includesElement__electronegativity_mulliken": [3.068853, 6.567065, 3.716255], "includesElement__electronegativity_nagle": [0.2316939, 0.8774979, 0.4165729], "includesElement__electronegativity_pauling": [1.0, 3.04, 1.66], "includesElement__electronegativity_sanderson": [0.1901577, 0.577482, 0.6017723], "includesElement__en_ghosh": [0.1154119, 0.26493, 0.1313053], "includesElement__en_pauling": [1.0, 3.04, 1.66], "includesElement__evaporation_heat": [153.6, 342.0], "includesElement__fusion_heat": [9.2, 21.0], "includesElement__glawe_number": [16, 88, 55], "includesElement__group_id": [2, 15, 6], "includesElement__heat_of_formation": [177.8, 472.44, 397.48], "includesElement__is_radioactive": [false], "includesElement__lattice_constant": [5.58, 4.039, 2.88], "includesElement__mendeleev_number": [7, 93, 51], "includesElement__molar_heat_capacity": [25.929, 29.124, 23.35], "includesElement__period": [4, 2], "includesElement__pettifor_number": [16, 100, 57], "includesElement__specific_heat_capacity": [0.647, 1.04, 0.449], "includesElement__vdw_radius": [231.0, 155.0, 206.0], "includesElement__vdw_radius_alvarez": [262.0, 166.0, 245.0], "includesElement__vdw_radius_mm3": [281.0, 193.0, 225.0], "includesElement__vdw_radius_uff": [339.9, 366.0, 302.3], "includesElement__abundance_sea": [412.0, 0.5, 0.0003], "includesElement__atomic_weight_uncertainty": [0.004, 0.0006], "includesElement__c6_gb": [2230.0, 25.7, 709.0], "includesElement__covalent_radius_bragg": [170.0, 65.0, 140.0], "includesElement__electronegativity_allen": [6.113, 18.13, 9.77], "includesElement__en_allen": [6.113, 18.13, 9.77], "includesElement__metallic_radius": [174.0, 119.0], "includesElement__metallic_radius_c12": [197.0, 53.0, 128.0], "includesElement__vdw_radius_batsanov": [240.0, 160.0, 205.0], "includesElement__c6": [2163.0, 24.2, 602.0], "includesElement__vdw_radius_truhlar": [231.0], "includesElement__thermal_conductivity": [0.026, 93.9], "includesElement__vdw_radius_dreiding": [366.21], "includesElement__gas_basicity": [318.7, 768.4], "includesElement__proton_affinity": [342.2, 791.3], "includesElement__vdw_radius_bondi": [155.0], "includesElement__vdw_radius_rt": [164.0], "formula": ["Ca6Cr2N6"], "spacegroup": ["63"], "thermalConductivity": [6.09239], "icsd": ["40205"], "band_gap": [0.0], "density": [3.271112], "density_atomic": [15.53735], "deprecated": [false], "efermi": [4.820314], "energy_above_hull": [0.0], "energy_per_atom": [-10.17757], "formation_energy_per_atom": [-1.095506], "homogeneous_poisson": [0.248], "is_gap_direct": [false], "is_magnetic": [true], "is_metal": [true], "is_stable": [true], "nelements": [3], "nsites": [14], "num_magnetic_sites": [2], "num_unique_magnetic_sites": [1], "theoretical": [false], "total_magnetization": [1.99726], "total_magnetization_normalized_formula_units": [0.9986301], "total_magnetization_normalized_vol": [0.009181839], "uncorrected_energy_per_atom": [-10.17757], "universal_anisotropy": [0.071], "volume": [217.5229], "equilibrium_reaction_energy_per_atom": [-0.08588411]}