{"includesElement": ["", "O", "V", "Hf"], "includesElement___series_id": [1, 8], "includesElement__abundance_crust": [461000.0, 120.0, 3.0], "includesElement__atomic_number": [8, 23, 72], "includesElement__atomic_radius": [60.0, 135.0, 155.0], "includesElement__atomic_radius_rahm": [171.0, 252.0, 264.0], "includesElement__atomic_volume": [14.0, 8.35, 13.6], "includesElement__atomic_weight": [15.999, 50.9415, 178.49], "includesElement__covalent_radius_cordero": [66.0, 153.0, 175.0], "includesElement__covalent_radius_pyykko": [63.0, 134.0, 152.0], "includesElement__covalent_radius_pyykko_double": [57.0, 112.0, 128.0], "includesElement__covalent_radius_pyykko_triple": [53.0, 106.0, 122.0], "includesElement__density": [0.001308, 6.0, 13.3], "includesElement__dipole_polarizability": [5.3, 87.0, 103.0], "includesElement__dipole_polarizability_unc": [0.2, 10.0, 6.0], "includesElement__discovery_year": [1774, 1830, 1923], "includesElement__electron_affinity": [1.461113, 0.525, 0.014], "includesElement__electronegativity_allred-rochow": [0.001146384, 0.0001837826, 0.00013634], "includesElement__electronegativity_cottrell-sutton": [0.2687419, 0.1569295, 0.1439572], "includesElement__electronegativity_ghosh": [0.304575, 0.1273344, 0.229987], "includesElement__electronegativity_gordy": [0.07222222, 0.02462687, 0.02072368], "includesElement__electronegativity_mulliken": [7.539584, 3.635594, 3.419535], "includesElement__electronegativity_nagle": [1.042218, 0.3859078, 0.3386421], "includesElement__electronegativity_pauling": [3.44, 1.63, 1.3], "includesElement__electronegativity_sanderson": [0.9416494, 0.4388898, 0.7352125], "includesElement__en_ghosh": [0.304575, 0.1273344, 0.229987], "includesElement__en_pauling": [3.44, 1.63, 1.3], "includesElement__glawe_number": [97, 54, 50], "includesElement__group_id": [16, 5, 4], "includesElement__heat_of_formation": [249.229, 515.5, 618.4], "includesElement__is_radioactive": [false], "includesElement__lattice_constant": [6.83, 3.02, 3.2], "includesElement__mendeleev_number": [99, 47, 45], "includesElement__molar_heat_capacity": [29.378, 24.89, 25.73], "includesElement__period": [2, 4, 6], "includesElement__pettifor_number": [101, 54, 50], "includesElement__specific_heat_capacity": [0.918, 0.489, 0.144], "includesElement__vdw_radius": [152.0, 207.0, 223.0], "includesElement__vdw_radius_alvarez": [150.0, 242.0, 263.0], "includesElement__vdw_radius_mm3": [182.0, 229.0, 253.0], "includesElement__vdw_radius_uff": [350.0, 314.4, 314.1], "includesElement__abundance_sea": [857000.0, 0.0025, 7e-06], "includesElement__c6_gb": [16.7, 955.0, 1040.0], "includesElement__covalent_radius_bragg": [65.0], "includesElement__electronegativity_allen": [21.36, 9.063, 6.83], "includesElement__en_allen": [21.36, 9.063, 6.83], "includesElement__thermal_conductivity": [0.027, 30.7, 23.0], "includesElement__vdw_radius_batsanov": [155.0, 205.0, 225.0], "includesElement__c6": [15.6, 832.0], "includesElement__vdw_radius_dreiding": [340.46], "includesElement__gas_basicity": [459.6, 836.8], "includesElement__proton_affinity": [485.2, 859.4], "includesElement__vdw_radius_bondi": [152.0], "includesElement__vdw_radius_rt": [158.0], "includesElement__evaporation_heat": [460.0, 575.0], "includesElement__fusion_heat": [17.5, 25.1], "includesElement__atomic_weight_uncertainty": [0.0001, 0.02], "includesElement__metallic_radius": [122.0, 144.0], "includesElement__metallic_radius_c12": [134.0, 159.0], "formula": ["Hf4O28V8"], "spacegroup": ["205"], "thermalConductivity": [3.23817], "icsd": ["90134"], "band_gap": [2.6491], "density": [3.737913], "density_atomic": [17.43068], "deprecated": [false], "efermi": [-1.845985], "energy_above_hull": [0.0], "energy_per_atom": [-9.162428], "formation_energy_per_atom": [-2.883344], "is_gap_direct": [false], "is_magnetic": [false], "is_metal": [false], "is_stable": [true], "nelements": [3], "nsites": [40], "num_magnetic_sites": [0], "num_unique_magnetic_sites": [0], "theoretical": [false], "total_magnetization": [0.0], "total_magnetization_normalized_formula_units": [0.0], "total_magnetization_normalized_vol": [0.0], "uncorrected_energy_per_atom": [-14.42888], "volume": [697.2273], "cbm": [0.7047], "equilibrium_reaction_energy_per_atom": [-0.07809694], "vbm": [-1.9444]}