{"includesElement": ["", "Si", "Pd", "Sr"], "includesElement___series_id": [5, 8, 4], "includesElement__abundance_crust": [282000.0, 0.015, 370.0], "includesElement__atomic_number": [14, 46, 38], "includesElement__atomic_radius": [110.0, 140.0, 200.0], "includesElement__atomic_radius_rahm": [232.0, 215.0, 279.0], "includesElement__atomic_volume": [12.1, 8.9, 33.7], "includesElement__atomic_weight": [28.085, 106.42, 87.62], "includesElement__covalent_radius_cordero": [111.0, 139.0, 195.0], "includesElement__covalent_radius_pyykko": [116.0, 120.0, 185.0], "includesElement__covalent_radius_pyykko_double": [107.0, 117.0, 157.0], "includesElement__covalent_radius_pyykko_triple": [102.0, 112.0, 139.0], "includesElement__density": [2.3296, 12.0, 2.64], "includesElement__dipole_polarizability": [37.3, 26.14, 197.2], "includesElement__dipole_polarizability_unc": [0.7, 0.1, 0.2], "includesElement__discovery_year": [1824, 1803, 1790], "includesElement__electron_affinity": [1.389521, 0.562, 0.048], "includesElement__electronegativity_allred-rochow": [0.0003084126, 0.0004756944, 8.327246e-05], "includesElement__electronegativity_cottrell-sutton": [0.1891451, 0.2389212, 0.1241185], "includesElement__electronegativity_ghosh": [0.178503, 0.1440276, 0.1185082], "includesElement__electronegativity_gordy": [0.03577586, 0.05708333, 0.01540541], "includesElement__electronegativity_mulliken": [4.770602, 4.44943, 2.871434], "includesElement__electronegativity_nagle": [0.4750986, 0.7259357, 0.2164584], "includesElement__electronegativity_pauling": [1.9, 2.2, 0.95], "includesElement__electronegativity_sanderson": [0.3468158, 1.124263, 0.2631786], "includesElement__en_ghosh": [0.178503, 0.1440276, 0.1185082], "includesElement__en_pauling": [1.9, 2.2, 0.95], "includesElement__evaporation_heat": [383.0, 372.4, 144.0], "includesElement__fusion_heat": [50.6, 17.24, 9.2], "includesElement__glawe_number": [85, 65, 15], "includesElement__group_id": [14, 10, 2], "includesElement__heat_of_formation": [450.0, 376.6, 164.0], "includesElement__is_radioactive": [false], "includesElement__lattice_constant": [5.43, 3.89, 6.08], "includesElement__mendeleev_number": [88, 68, 8], "includesElement__molar_heat_capacity": [19.99, 25.98, 26.79], "includesElement__period": [3, 5], "includesElement__pettifor_number": [85, 69, 15], "includesElement__specific_heat_capacity": [0.712, 0.246, 0.306], "includesElement__vdw_radius": [210.0, 249.0], "includesElement__vdw_radius_alvarez": [219.0, 215.0, 284.0], "includesElement__vdw_radius_mm3": [229.0, 237.0, 300.0], "includesElement__vdw_radius_uff": [429.5, 289.9, 364.1], "includesElement__abundance_sea": [2.2, 7.9], "includesElement__c6_gb": [308.0, 628.0, 3230.0], "includesElement__covalent_radius_bragg": [117.0, 195.0], "includesElement__electronegativity_allen": [11.33, 9.402, 5.695], "includesElement__en_allen": [11.33, 9.402, 5.695], "includesElement__metallic_radius": [117.0, 128.0, 191.0], "includesElement__metallic_radius_c12": [138.0, 137.0, 215.0], "includesElement__thermal_conductivity": [149.0, 71.8], "includesElement__vdw_radius_batsanov": [210.0, 205.0, 255.0], "includesElement__c6": [305.0, 3175.0], "includesElement__vdw_radius_dreiding": [427.0], "includesElement__gas_basicity": [814.1, 673.4], "includesElement__proton_affinity": [837.0, 696.0], "includesElement__vdw_radius_bondi": [210.0], "includesElement__atomic_weight_uncertainty": [0.01], "includesElement__vdw_radius_truhlar": [249.0], "formula": ["Pd4Si4Sr4"], "spacegroup": ["198"], "thermalConductivity": [1.20107], "icsd": ["69791"], "band_gap": [0.0], "density": [5.295824], "density_atomic": [23.21628], "deprecated": [false], "efermi": [4.382743], "energy_above_hull": [0.0], "energy_per_atom": [-4.831104], "formation_energy_per_atom": [-0.7318943], "homogeneous_poisson": [0.348], "is_gap_direct": [false], "is_magnetic": [false], "is_metal": [true], "is_stable": [true], "nelements": [3], "nsites": [12], "num_magnetic_sites": [0], "num_unique_magnetic_sites": [0], "theoretical": [false], "total_magnetization": [3e-07], "total_magnetization_normalized_formula_units": [7.5e-08], "total_magnetization_normalized_vol": [1.07683e-09], "uncorrected_energy_per_atom": [-16.42338], "universal_anisotropy": [0.446], "volume": [278.5954], "equilibrium_reaction_energy_per_atom": [-0.1027111]}