{"includesElement": ["", "Si", "Rh", "Th"], "includesElement___series_id": [5, 8, 10], "includesElement__abundance_crust": [282000.0, 0.001, 9.6], "includesElement__atomic_number": [14, 45, 90], "includesElement__atomic_radius": [110.0, 135.0, 180.0], "includesElement__atomic_radius_rahm": [232.0, 233.0, 288.0], "includesElement__atomic_volume": [12.1, 8.3, 19.8], "includesElement__atomic_weight": [28.085, 102.9055, 232.0377], "includesElement__covalent_radius_cordero": [111.0, 142.0, 206.0], "includesElement__covalent_radius_pyykko": [116.0, 125.0, 175.0], "includesElement__covalent_radius_pyykko_double": [107.0, 110.0, 143.0], "includesElement__covalent_radius_pyykko_triple": [102.0, 106.0, 136.0], "includesElement__density": [2.3296, 12.4, 11.7], "includesElement__dipole_polarizability": [37.3, 66.0, 217.0], "includesElement__dipole_polarizability_unc": [0.7, 10.0, 54.0], "includesElement__discovery_year": [1824, 1803, 1828], "includesElement__electron_affinity": [1.389521, 1.137], "includesElement__electronegativity_allred-rochow": [0.0003084126, 0.0002176, 0.0001028571], "includesElement__electronegativity_cottrell-sutton": [0.1891451, 0.1649242, 0.1341641], "includesElement__electronegativity_ghosh": [0.178503, 0.1408379, 0.10277], "includesElement__electronegativity_gordy": [0.03577586, 0.0272, 0.018], "includesElement__electronegativity_mulliken": [4.770602, 4.29795, 3.15335], "includesElement__electronegativity_nagle": [0.4750986, 0.5147142, 0.2641598], "includesElement__electronegativity_pauling": [1.9, 2.28, 1.3], "includesElement__electronegativity_sanderson": [0.3468158, 0.9761915, 0.5557019], "includesElement__en_ghosh": [0.178503, 0.1408379, 0.10277], "includesElement__en_pauling": [1.9, 2.28, 1.3], "includesElement__evaporation_heat": [383.0, 494.0, 513.7], "includesElement__fusion_heat": [50.6, 21.8, 16.11], "includesElement__glawe_number": [85, 63, 34], "includesElement__group_id": [14, 9], "includesElement__heat_of_formation": [450.0, 556.0, 602.0], "includesElement__is_radioactive": [false, true], "includesElement__lattice_constant": [5.43, 3.8, 5.08], "includesElement__mendeleev_number": [88, 64, 16], "includesElement__molar_heat_capacity": [19.99, 24.98, 27.32], "includesElement__period": [3, 5, 7], "includesElement__pettifor_number": [85, 66, 47], "includesElement__specific_heat_capacity": [0.712, 0.243, 0.118], "includesElement__vdw_radius": [210.0, 245.0], "includesElement__vdw_radius_alvarez": [219.0, 244.0, 293.0], "includesElement__vdw_radius_mm3": [229.0, 234.0, 274.0], "includesElement__vdw_radius_uff": [429.5, 292.9, 339.6], "includesElement__abundance_sea": [2.2, 1e-06], "includesElement__c6_gb": [308.0, 708.0], "includesElement__covalent_radius_bragg": [117.0], "includesElement__electronegativity_allen": [11.33, 9.259], "includesElement__en_allen": [11.33, 9.259], "includesElement__metallic_radius": [117.0, 125.0], "includesElement__metallic_radius_c12": [138.0, 134.0], "includesElement__thermal_conductivity": [149.0, 150.0], "includesElement__vdw_radius_batsanov": [210.0, 200.0, 240.0], "includesElement__c6": [305.0], "includesElement__vdw_radius_dreiding": [427.0], "includesElement__gas_basicity": [814.1, 745.4], "includesElement__proton_affinity": [837.0, 768.0], "includesElement__vdw_radius_bondi": [210.0], "includesElement__atomic_weight_uncertainty": [2e-05, 0.0004], "includesElement__is_monoisotopic": [true], "formula": ["Rh2Si2Th1"], "spacegroup": ["139"], "thermalConductivity": [12.4583], "icsd": ["650332"], "band_gap": [0.0], "density": [9.617899], "density_atomic": [17.0586], "deprecated": [false], "efermi": [8.447078], "energy_above_hull": [0.0], "energy_per_atom": [-29.00267], "formation_energy_per_atom": [-1.143618], "is_gap_direct": [false], "is_magnetic": [false], "is_metal": [true], "is_stable": [true], "nelements": [3], "nsites": [5], "num_magnetic_sites": [0], "num_unique_magnetic_sites": [0], "theoretical": [false], "total_magnetization": [7e-07], "total_magnetization_normalized_formula_units": [7e-07], "total_magnetization_normalized_vol": [8.207003e-09], "uncorrected_energy_per_atom": [-29.00267], "volume": [85.29301], "equilibrium_reaction_energy_per_atom": [-0.1755111]}