{"includesElement": ["Ti", "Os", "Te"], "includesElement___series_id": [8, 5], "includesElement__abundance_crust": [5650.0, 0.0015, 0.001], "includesElement__atomic_number": [22, 76, 52], "includesElement__atomic_radius": [140.0, 130.0], "includesElement__atomic_radius_rahm": [257.0, 244.0, 242.0], "includesElement__atomic_volume": [10.6, 8.43, 20.5], "includesElement__atomic_weight": [47.867, 190.23, 127.6], "includesElement__covalent_radius_cordero": [160.0, 144.0, 138.0], "includesElement__covalent_radius_pyykko": [136.0, 129.0], "includesElement__covalent_radius_pyykko_double": [117.0, 116.0, 128.0], "includesElement__covalent_radius_pyykko_triple": [108.0, 109.0, 121.0], "includesElement__density": [4.506, 22.5872, 6.232], "includesElement__dipole_polarizability": [100.0, 57.0, 38.0], "includesElement__dipole_polarizability_unc": [10.0, 3.0, 4.0], "includesElement__discovery_year": [1791, 1804, 1782], "includesElement__electron_affinity": [0.079, 1.1, 1.970876], "includesElement__electronegativity_allred-rochow": [0.0001703071, 0.000225347, 0.0003757569], "includesElement__electronegativity_cottrell-sutton": [0.1521899, 0.1704986, 0.2260596], "includesElement__electronegativity_ghosh": [0.1233637, 0.2479845, 0.2056992], "includesElement__electronegativity_gordy": [0.02316176, 0.02906977, 0.05110294], "includesElement__electronegativity_mulliken": [3.45356, 4.769115, 5.490268], "includesElement__electronegativity_nagle": [0.3419952, 0.5196828, 0.5404919], "includesElement__electronegativity_pauling": [1.54, 2.2, 2.1], "includesElement__electronegativity_sanderson": [0.4055462, 1.239276, 0.8622506], "includesElement__en_ghosh": [0.1233637, 0.2479845, 0.2056992], "includesElement__en_pauling": [1.54, 2.2, 2.1], "includesElement__evaporation_heat": [422.6, 738.0, 49.8], "includesElement__fusion_heat": [18.8, 31.7, 17.91], "includesElement__glawe_number": [51, 60, 94], "includesElement__group_id": [4, 8, 16], "includesElement__heat_of_formation": [473.0, 787.0, 196.6], "includesElement__is_radioactive": [false], "includesElement__lattice_constant": [2.95, 2.74, 4.45], "includesElement__mendeleev_number": [43, 61, 102], "includesElement__molar_heat_capacity": [25.06, 24.7, 25.73], "includesElement__period": [4, 6, 5], "includesElement__pettifor_number": [51, 62, 92], "includesElement__specific_heat_capacity": [0.523, 0.13, 0.202], "includesElement__vdw_radius": [211.0, 216.0, 206.0], "includesElement__vdw_radius_alvarez": [246.0, 248.0, 199.0], "includesElement__vdw_radius_mm3": [239.0, 235.0, 244.0], "includesElement__vdw_radius_uff": [317.5, 312.0, 447.0], "includesElement__abundance_sea": [0.001], "includesElement__atomic_weight_uncertainty": [0.001, 0.03], "includesElement__c6_gb": [1200.0, 584.0, 471.0], "includesElement__covalent_radius_bragg": [140.0, 133.0], "includesElement__electronegativity_allen": [8.17, 9.78, 12.76], "includesElement__en_allen": [8.17, 9.78, 12.76], "includesElement__metallic_radius": [132.0, 126.0, 137.0], "includesElement__metallic_radius_c12": [147.0, 135.0, 160.0], "includesElement__thermal_conductivity": [21.9, 14.3], "includesElement__vdw_radius_batsanov": [215.0, 200.0, 210.0], "includesElement__c6": [1044.0, 445.0], "includesElement__gas_basicity": [853.7], "includesElement__proton_affinity": [876.0], "includesElement__vdw_radius_dreiding": [423.0], "includesElement__vdw_radius_bondi": [206.0], "formula": ["TiTeOs"], "mp_id": ["961646"], "thermalConductivity": [12.96], "band_gap": [0.4377], "density": [10.34059], "density_atomic": [19.57509], "deprecated": [false], "efermi": [7.724069], "energy_above_hull": [0.2489095], "energy_per_atom": [-30.88648], "formation_energy_per_atom": [-0.4397453], "homogeneous_poisson": [0.326], "is_gap_direct": [true], "is_magnetic": [false], "is_metal": [false], "is_stable": [false], "nelements": [3], "nsites": [3], "num_magnetic_sites": [0], "num_unique_magnetic_sites": [0], "theoretical": [true], "total_magnetization": [0.001679], "total_magnetization_normalized_formula_units": [0.001679], "total_magnetization_normalized_vol": [2.859076e-05], "uncorrected_energy_per_atom": [-7.757237], "universal_anisotropy": [0.011], "volume": [58.72528], "cbm": [8.0668], "vbm": [7.6291]}