{"includesElement": ["", "Sc", "Rh", "C"], "includesElement___series_id": [8, 1], "includesElement__abundance_crust": [22.0, 0.001, 200.0], "includesElement__atomic_number": [21, 45, 6], "includesElement__atomic_radius": [160.0, 135.0, 70.0], "includesElement__atomic_radius_rahm": [263.0, 233.0, 190.0], "includesElement__atomic_volume": [15.0, 8.3, 5.3], "includesElement__atomic_weight": [44.95591, 102.9055, 12.011], "includesElement__covalent_radius_cordero": [170.0, 142.0, 73.0], "includesElement__covalent_radius_pyykko": [148.0, 125.0, 75.0], "includesElement__covalent_radius_pyykko_double": [116.0, 110.0, 67.0], "includesElement__covalent_radius_pyykko_triple": [114.0, 106.0, 60.0], "includesElement__density": [2.99, 12.4, 2.2], "includesElement__dipole_polarizability": [97.0, 66.0, 11.3], "includesElement__dipole_polarizability_unc": [10.0, 0.2], "includesElement__discovery_year": [1879, 1803], "includesElement__electron_affinity": [0.188, 1.137, 1.262119], "includesElement__electronegativity_allred-rochow": [0.0001369613, 0.0002176, 0.0005777778], "includesElement__electronegativity_cottrell-sutton": [0.1423737, 0.1649242, 0.2081666], "includesElement__electronegativity_ghosh": [0.1193833, 0.1408379, 0.224776], "includesElement__electronegativity_gordy": [0.02027027, 0.0272, 0.04333333], "includesElement__electronegativity_mulliken": [3.374745, 4.29795, 6.261208], "includesElement__electronegativity_nagle": [0.3138941, 0.5147142, 0.7073926], "includesElement__electronegativity_pauling": [1.36, 2.28, 2.55], "includesElement__electronegativity_sanderson": [0.3038674, 0.9761915, 0.427525], "includesElement__en_ghosh": [0.1193833, 0.1408379, 0.224776], "includesElement__en_pauling": [1.36, 2.28, 2.55], "includesElement__evaporation_heat": [332.7, 494.0], "includesElement__fusion_heat": [15.8, 21.8], "includesElement__glawe_number": [48, 63, 87], "includesElement__group_id": [3, 9, 14], "includesElement__heat_of_formation": [377.8, 556.0, 716.87], "includesElement__is_radioactive": [false], "includesElement__lattice_constant": [3.31, 3.8, 3.57], "includesElement__mendeleev_number": [11, 64, 87], "includesElement__molar_heat_capacity": [25.52, 24.98, 8.517], "includesElement__period": [4, 5, 2], "includesElement__pettifor_number": [20, 66, 95], "includesElement__specific_heat_capacity": [0.568, 0.243, 0.709], "includesElement__vdw_radius": [215.0, 210.0, 170.0], "includesElement__vdw_radius_alvarez": [258.0, 244.0, 177.0], "includesElement__vdw_radius_mm3": [261.0, 234.0, 204.0], "includesElement__vdw_radius_uff": [329.5, 292.9, 385.1], "includesElement__abundance_sea": [6e-07, 28.0], "includesElement__atomic_weight_uncertainty": [5e-06, 2e-05], "includesElement__c6_gb": [1570.0, 708.0, 47.9], "includesElement__electronegativity_allen": [7.042, 9.259, 15.05], "includesElement__en_allen": [7.042, 9.259, 15.05], "includesElement__metallic_radius": [144.0, 125.0], "includesElement__metallic_radius_c12": [162.0, 134.0, 86.0], "includesElement__thermal_conductivity": [15.8, 150.0, 1.59], "includesElement__vdw_radius_batsanov": [230.0, 200.0, 170.0], "includesElement__c6": [1383.0, 46.6], "includesElement__is_monoisotopic": [true], "includesElement__gas_basicity": [892.0, 745.4], "includesElement__proton_affinity": [914.0, 768.0], "includesElement__covalent_radius_bragg": [77.0], "includesElement__vdw_radius_dreiding": [389.83], "includesElement__vdw_radius_bondi": [170.0], "includesElement__vdw_radius_rt": [177.0], "formula": ["C1Rh3Sc1"], "spacegroup": ["221"], "thermalConductivity": [9.87466], "icsd": ["77385"], "band_gap": [0.0], "density": [8.975447], "density_atomic": [13.53094], "deprecated": [false], "efermi": [6.644548], "energy_above_hull": [0.0], "energy_per_atom": [-8.025623], "formation_energy_per_atom": [-0.4948117], "homogeneous_poisson": [0.318], "is_gap_direct": [false], "is_magnetic": [false], "is_metal": [true], "is_stable": [true], "nelements": [3], "nsites": [5], "num_magnetic_sites": [0], "num_unique_magnetic_sites": [0], "theoretical": [false], "total_magnetization": [1.6e-06], "total_magnetization_normalized_formula_units": [1.6e-06], "total_magnetization_normalized_vol": [2.36495e-08], "uncorrected_energy_per_atom": [-19.29503], "universal_anisotropy": [0.086], "volume": [67.65469], "equilibrium_reaction_energy_per_atom": [-0.009338572]}