{"includesElement": ["Zr", "Fe", "Te"], "includesElement___series_id": [8, 5], "includesElement__abundance_crust": [165.0, 56300.0, 0.001], "includesElement__atomic_number": [40, 26, 52], "includesElement__atomic_radius": [155.0, 140.0], "includesElement__atomic_radius_rahm": [269.0, 237.0, 242.0], "includesElement__atomic_volume": [14.1, 7.1, 20.5], "includesElement__atomic_weight": [91.224, 55.845, 127.6], "includesElement__covalent_radius_cordero": [175.0, 142.0, 138.0], "includesElement__covalent_radius_pyykko": [154.0, 116.0, 136.0], "includesElement__covalent_radius_pyykko_double": [127.0, 109.0, 128.0], "includesElement__covalent_radius_pyykko_triple": [121.0, 102.0], "includesElement__density": [6.52, 7.87, 6.232], "includesElement__dipole_polarizability": [112.0, 62.0, 38.0], "includesElement__dipole_polarizability_unc": [13.0, 4.0], "includesElement__discovery_year": [1789, 1782], "includesElement__electron_affinity": [0.426, 0.151, 1.970876], "includesElement__electronegativity_allred-rochow": [0.0001328217, 0.0002786861, 0.0003757569], "includesElement__electronegativity_cottrell-sutton": [0.1430194, 0.1797987, 0.2260596], "includesElement__electronegativity_ghosh": [0.1248887, 0.1392532, 0.2056992], "includesElement__electronegativity_gordy": [0.02045455, 0.03232759, 0.05110294], "includesElement__electronegativity_mulliken": [3.52995, 4.026734, 5.490268], "includesElement__electronegativity_nagle": [0.3293169, 0.5053195, 0.5404919], "includesElement__electronegativity_pauling": [1.33, 1.83, 2.1], "includesElement__electronegativity_sanderson": [0.4744467, 0.748727, 0.8622506], "includesElement__en_ghosh": [0.1248887, 0.1392532, 0.2056992], "includesElement__en_pauling": [1.33, 1.83, 2.1], "includesElement__evaporation_heat": [567.0, 340.0, 49.8], "includesElement__fusion_heat": [19.2, 13.8, 17.91], "includesElement__glawe_number": [49, 71, 94], "includesElement__group_id": [4, 8, 16], "includesElement__heat_of_formation": [610.0, 415.5, 196.6], "includesElement__is_radioactive": [false], "includesElement__lattice_constant": [3.23, 2.87, 4.45], "includesElement__mendeleev_number": [44, 59, 102], "includesElement__molar_heat_capacity": [25.36, 25.1, 25.73], "includesElement__period": [5, 4], "includesElement__pettifor_number": [49, 61, 92], "includesElement__specific_heat_capacity": [0.278, 0.449, 0.202], "includesElement__vdw_radius": [223.0, 204.0, 206.0], "includesElement__vdw_radius_alvarez": [252.0, 244.0, 199.0], "includesElement__vdw_radius_mm3": [254.0, 223.0, 244.0], "includesElement__vdw_radius_uff": [312.4, 291.2, 447.0], "includesElement__abundance_sea": [3e-05, 0.002], "includesElement__atomic_weight_uncertainty": [0.002, 0.03], "includesElement__c6_gb": [1360.0, 548.0, 471.0], "includesElement__electronegativity_allen": [7.808, 10.64, 12.76], "includesElement__en_allen": [7.808, 10.64, 12.76], "includesElement__metallic_radius": [145.0, 117.0, 137.0], "includesElement__metallic_radius_c12": [160.0, 126.0], "includesElement__thermal_conductivity": [22.7, 80.4, 14.3], "includesElement__vdw_radius_batsanov": [230.0, 205.0, 210.0], "includesElement__covalent_radius_bragg": [140.0, 133.0], "includesElement__c6": [482.0, 445.0], "includesElement__gas_basicity": [731.1], "includesElement__proton_affinity": [754.0], "includesElement__vdw_radius_dreiding": [423.0], "includesElement__vdw_radius_bondi": [206.0], "formula": ["ZrFeTe"], "mp_id": ["961649"], "thermalConductivity": [20.0], "band_gap": [1.1558], "density": [7.947743], "density_atomic": [19.12906], "deprecated": [false], "efermi": [7.388209], "energy_above_hull": [0.06655003], "energy_per_atom": [-7.392873], "formation_energy_per_atom": [-0.6725309], "homogeneous_poisson": [0.269], "is_gap_direct": [false], "is_magnetic": [false], "is_metal": [false], "is_stable": [false], "nelements": [3], "nsites": [3], "num_magnetic_sites": [0], "num_unique_magnetic_sites": [0], "theoretical": [true], "total_magnetization": [4.35e-05], "total_magnetization_normalized_formula_units": [4.35e-05], "total_magnetization_normalized_vol": [7.58009e-07], "uncorrected_energy_per_atom": [-7.252207], "universal_anisotropy": [0.327], "volume": [57.38718], "cbm": [8.4761], "vbm": [7.3203]}