{"includesElement": ["", "Se", "Ag", "Ho"], "includesElement___series_id": [1, 8, 9], "includesElement__abundance_crust": [0.05, 0.075, 1.3], "includesElement__atomic_number": [34, 47, 67], "includesElement__atomic_radius": [115.0, 160.0, 175.0], "includesElement__atomic_radius_rahm": [224.0, 225.0, 273.0], "includesElement__atomic_volume": [16.5, 10.3, 18.7], "includesElement__atomic_weight": [78.971, 107.8682, 164.9303], "includesElement__covalent_radius_cordero": [120.0, 145.0, 192.0], "includesElement__covalent_radius_pyykko": [116.0, 128.0, 166.0], "includesElement__covalent_radius_pyykko_double": [107.0, 139.0, 133.0], "includesElement__covalent_radius_pyykko_triple": [107.0, 137.0], "includesElement__density": [4.809, 10.5, 8.8], "includesElement__dipole_polarizability": [28.9, 55.0, 156.0], "includesElement__dipole_polarizability_unc": [1.0, 8.0, 10.0], "includesElement__discovery_year": [1818, 1878], "includesElement__electron_affinity": [2.02067, 1.302], "includesElement__electronegativity_allred-rochow": [0.0005164982, 0.0002258301, 0.0001034258], "includesElement__electronegativity_cottrell-sutton": [0.2447729, 0.1700184, 0.1310293], "includesElement__electronegativity_ghosh": [0.2240328, 0.1472165, 0.207795], "includesElement__electronegativity_gordy": [0.05991379, 0.02890625, 0.01716867], "includesElement__electronegativity_mulliken": [5.886531, 4.439117, 3.01075], "includesElement__electronegativity_nagle": [0.592131, 0.5848035, 0.4367902], "includesElement__electronegativity_pauling": [2.55, 1.93, 1.23], "includesElement__electronegativity_sanderson": [0.9659121, 0.9437955, 0.5434919], "includesElement__en_ghosh": [0.2240328, 0.1472165, 0.207795], "includesElement__en_pauling": [2.55, 1.93, 1.23], "includesElement__evaporation_heat": [59.7, 254.1, 301.0], "includesElement__fusion_heat": [5.23, 11.95], "includesElement__glawe_number": [95, 67, 23], "includesElement__group_id": [16, 11], "includesElement__heat_of_formation": [227.2, 284.9, 300.6], "includesElement__is_radioactive": [false], "includesElement__lattice_constant": [4.36, 4.09, 3.58], "includesElement__mendeleev_number": [101, 72, 33], "includesElement__molar_heat_capacity": [25.363, 25.35, 27.15], "includesElement__period": [4, 5, 6], "includesElement__pettifor_number": [93, 71, 24], "includesElement__specific_heat_capacity": [0.321, 0.235, 0.165], "includesElement__vdw_radius": [190.0, 211.0, 230.0], "includesElement__vdw_radius_alvarez": [182.0, 253.0, 281.0], "includesElement__vdw_radius_mm3": [229.0, 243.0, 267.0], "includesElement__vdw_radius_uff": [420.5, 314.8, 340.9], "includesElement__abundance_sea": [0.0002, 4e-05, 2.2e-07], "includesElement__atomic_weight_uncertainty": [0.008, 0.0002, 2e-05], "includesElement__c6_gb": [233.0, 341.0, 2280.0], "includesElement__covalent_radius_bragg": [117.0, 177.0], "includesElement__electronegativity_allen": [14.34, 11.05], "includesElement__en_allen": [14.34, 11.05], "includesElement__metallic_radius": [117.0, 134.0], "includesElement__metallic_radius_c12": [140.0, 144.0], "includesElement__thermal_conductivity": [0.52, 429.0], "includesElement__vdw_radius_batsanov": [190.0, 210.0], "includesElement__c6": [210.0], "includesElement__vdw_radius_dreiding": [403.0], "includesElement__vdw_radius_bondi": [190.0], "includesElement__is_monoisotopic": [true], "formula": ["Ag4Ho4Se8"], "spacegroup": ["19"], "thermalConductivity": [1.25585], "icsd": ["156419"], "band_gap": [1.2712], "density": [7.279368], "density_atomic": [24.56343], "deprecated": [false], "efermi": [2.811086], "energy_above_hull": [0.0], "energy_per_atom": [-5.040918], "formation_energy_per_atom": [-1.432808], "is_gap_direct": [true], "is_magnetic": [false], "is_metal": [false], "is_stable": [true], "nelements": [3], "nsites": [16], "num_magnetic_sites": [0], "num_unique_magnetic_sites": [0], "theoretical": [false], "total_magnetization": [0.0], "total_magnetization_normalized_formula_units": [0.0], "total_magnetization_normalized_vol": [0.0], "uncorrected_energy_per_atom": [-22.13028], "volume": [393.0149], "cbm": [4.0023], "e_electronic": [8.706229], "e_ionic": [10.62863], "e_total": [19.33486], "equilibrium_reaction_energy_per_atom": [-0.003751398], "n": [2.950632], "vbm": [2.7311], "e_ij_max": [0.1647]}