{"includesElement": ["", "Bi", "Pt", "Dy"], "includesElement___series_id": [7, 8, 9], "includesElement__abundance_crust": [0.0085, 0.005, 5.2], "includesElement__atomic_number": [83, 78, 66], "includesElement__atomic_radius": [160.0, 135.0, 175.0], "includesElement__atomic_radius_rahm": [250.0, 230.0, 275.0], "includesElement__atomic_volume": [21.3, 9.1, 19.0], "includesElement__atomic_weight": [208.9804, 195.084, 162.5], "includesElement__covalent_radius_cordero": [148.0, 136.0, 192.0], "includesElement__covalent_radius_pyykko": [151.0, 123.0, 167.0], "includesElement__covalent_radius_pyykko_double": [141.0, 112.0, 133.0], "includesElement__covalent_radius_pyykko_triple": [135.0, 110.0], "includesElement__density": [9.79, 21.5, 8.55], "includesElement__dipole_polarizability": [48.0, 163.0], "includesElement__dipole_polarizability_unc": [4.0, 15.0], "includesElement__electron_affinity": [0.942362, 2.128, 0.352], "includesElement__electronegativity_allred-rochow": [0.0002763037, 0.0002346487, 0.0001021908], "includesElement__electronegativity_cottrell-sutton": [0.2042593, 0.1698876, 0.1306364], "includesElement__electronegativity_ghosh": [0.182377, 0.25691, 0.20333], "includesElement__electronegativity_gordy": [0.04172185, 0.02886179, 0.01706587], "includesElement__electronegativity_mulliken": [4.113939, 5.543415, 3.145525], "includesElement__electronegativity_nagle": [0.470518, 0.5928156, 0.4191131], "includesElement__electronegativity_pauling": [1.9, 2.2, 1.22], "includesElement__electronegativity_sanderson": [0.8136501, 1.45101, 0.5297338], "includesElement__en_ghosh": [0.182377, 0.25691, 0.20333], "includesElement__en_pauling": [1.9, 2.2, 1.22], "includesElement__evaporation_heat": [172.0, 470.0, 291.0], "includesElement__fusion_heat": [11.0, 21.76], "includesElement__glawe_number": [92, 64, 24], "includesElement__group_id": [15, 10], "includesElement__heat_of_formation": [209.6, 565.7, 290.4], "includesElement__is_radioactive": [false], "includesElement__lattice_constant": [4.75, 3.92, 3.59], "includesElement__mendeleev_number": [97, 69, 31], "includesElement__molar_heat_capacity": [25.52, 25.86, 28.16], "includesElement__period": [6], "includesElement__pettifor_number": [87, 68, 25], "includesElement__specific_heat_capacity": [0.122, 0.133, 0.173], "includesElement__vdw_radius": [207.0, 213.0, 231.0], "includesElement__vdw_radius_alvarez": [254.0, 229.0, 287.0], "includesElement__vdw_radius_mm3": [266.0, 239.0, 290.0], "includesElement__vdw_radius_uff": [437.0, 275.4, 342.8], "includesElement__abundance_sea": [2e-05, 9.1e-07], "includesElement__atomic_weight_uncertainty": [1e-05, 0.009, 0.001], "includesElement__c6_gb": [513.0, 470.0, 2430.0], "includesElement__covalent_radius_bragg": [148.0], "includesElement__electronegativity_allen": [11.9, 10.16], "includesElement__en_allen": [11.9, 10.16], "includesElement__metallic_radius": [151.0, 130.0], "includesElement__metallic_radius_c12": [178.0, 139.0], "includesElement__thermal_conductivity": [7.9, 71.6, 10.7], "includesElement__vdw_radius_batsanov": [230.0, 205.0], "includesElement__is_monoisotopic": [true], "includesElement__vdw_radius_truhlar": [207.0], "includesElement__discovery_year": [1735, 1886], "formula": ["Bi1Dy1Pt1", "DyBiPt"], "mp_id": ["30453"], "spacegroup": ["216"], "thermalConductivity": [4.34093, 6.23], "icsd": ["58780"], "band_gap": [0.0], "density": [12.56002], "density_atomic": [24.96817], "deprecated": [false], "efermi": [5.713377], "energy_above_hull": [0.0], "energy_per_atom": [-5.889687], "formation_energy_per_atom": [-1.046354], "homogeneous_poisson": [0.304], "is_gap_direct": [false], "is_magnetic": [false], "is_metal": [true], "is_stable": [true], "nelements": [3], "nsites": [3], "num_magnetic_sites": [0], "num_unique_magnetic_sites": [0], "theoretical": [false], "total_magnetization": [6e-07], "total_magnetization_normalized_formula_units": [6e-07], "total_magnetization_normalized_vol": [8.010198e-09], "uncorrected_energy_per_atom": [-48.50707], "universal_anisotropy": [0.0], "volume": [74.90451], "equilibrium_reaction_energy_per_atom": [-0.1880853]}