{"includesElement": ["", "Ge", "Er", "Rh"], "includesElement___series_id": [5, 9, 8], "includesElement__abundance_crust": [1.5, 3.5, 0.001], "includesElement__atomic_number": [32, 68, 45], "includesElement__atomic_radius": [125.0, 175.0, 135.0], "includesElement__atomic_radius_rahm": [234.0, 272.0, 233.0], "includesElement__atomic_volume": [13.6, 18.4, 8.3], "includesElement__atomic_weight": [72.63, 167.259, 102.9055], "includesElement__covalent_radius_cordero": [120.0, 189.0, 142.0], "includesElement__covalent_radius_pyykko": [121.0, 165.0, 125.0], "includesElement__covalent_radius_pyykko_double": [111.0, 133.0, 110.0], "includesElement__covalent_radius_pyykko_triple": [114.0, 106.0], "includesElement__density": [5.3234, 9.07, 12.4], "includesElement__dipole_polarizability": [40.0, 150.0, 66.0], "includesElement__dipole_polarizability_unc": [1.0, 10.0], "includesElement__discovery_year": [1886, 1843, 1803], "includesElement__electron_affinity": [1.232712, 1.137], "includesElement__electronegativity_allred-rochow": [0.0003859026, 0.0001046832, 0.0002176], "includesElement__electronegativity_cottrell-sutton": [0.2160884, 0.1314257, 0.1649242], "includesElement__electronegativity_ghosh": [0.1895892, 0.212261, 0.1408379], "includesElement__electronegativity_gordy": [0.04669421, 0.01727273, 0.0272], "includesElement__electronegativity_mulliken": [4.566073, 3.05385, 4.29795], "includesElement__electronegativity_nagle": [0.4641589, 0.4536061, 0.5147142], "includesElement__electronegativity_pauling": [2.01, 1.24, 2.28], "includesElement__electronegativity_sanderson": [0.8001471, 0.5576573, 0.9761915], "includesElement__en_ghosh": [0.1895892, 0.212261, 0.1408379], "includesElement__en_pauling": [2.01, 1.24, 2.28], "includesElement__evaporation_heat": [328.0, 317.0, 494.0], "includesElement__fusion_heat": [36.8, 21.8], "includesElement__glawe_number": [84, 22, 63], "includesElement__group_id": [14, 9], "includesElement__heat_of_formation": [372.0, 316.4, 556.0], "includesElement__is_radioactive": [false], "includesElement__lattice_constant": [5.66, 3.56, 3.8], "includesElement__mendeleev_number": [89, 35, 64], "includesElement__molar_heat_capacity": [23.222, 28.12, 24.98], "includesElement__period": [4, 6, 5], "includesElement__pettifor_number": [84, 23, 66], "includesElement__specific_heat_capacity": [0.32, 0.168, 0.243], "includesElement__vdw_radius": [211.0, 229.0, 210.0], "includesElement__vdw_radius_alvarez": [229.0, 283.0, 244.0], "includesElement__vdw_radius_mm3": [244.0, 267.0, 234.0], "includesElement__vdw_radius_uff": [428.0, 339.1, 292.9], "includesElement__abundance_sea": [5e-05, 8.7e-07], "includesElement__atomic_weight_uncertainty": [0.008, 0.003, 2e-05], "includesElement__c6_gb": [365.0, 2150.0, 708.0], "includesElement__electronegativity_allen": [11.8, 9.259], "includesElement__en_allen": [11.8, 9.259], "includesElement__metallic_radius": [124.0, 125.0], "includesElement__metallic_radius_c12": [144.0, 134.0], "includesElement__thermal_conductivity": [60.2, 150.0], "includesElement__vdw_radius_batsanov": [210.0, 200.0], "includesElement__c6": [354.0], "includesElement__vdw_radius_dreiding": [427.0], "includesElement__vdw_radius_truhlar": [211.0], "includesElement__is_monoisotopic": [true], "includesElement__gas_basicity": [745.4], "includesElement__proton_affinity": [768.0], "formula": ["Er1Ge2Rh2"], "spacegroup": ["139"], "thermalConductivity": [6.35092], "icsd": ["630646"], "band_gap": [0.0], "density": [10.03157], "density_atomic": [17.16064], "deprecated": [false], "efermi": [6.382654], "energy_above_hull": [0.0009689593], "energy_per_atom": [-6.574003], "formation_energy_per_atom": [-0.8655248], "is_gap_direct": [false], "is_magnetic": [false], "is_metal": [true], "is_stable": [false], "nelements": [3], "nsites": [5], "num_magnetic_sites": [0], "num_unique_magnetic_sites": [0], "theoretical": [false], "total_magnetization": [8e-07], "total_magnetization_normalized_formula_units": [8e-07], "total_magnetization_normalized_vol": [9.323663e-09], "uncorrected_energy_per_atom": [-22.92907], "volume": [85.80318]}