{"includesElement": ["", "P", "Sr", "Ir"], "includesElement___series_id": [1, 4, 8], "includesElement__abundance_crust": [1050.0, 370.0, 0.001], "includesElement__atomic_number": [15, 38, 77], "includesElement__atomic_radius": [100.0, 200.0, 135.0], "includesElement__atomic_radius_rahm": [223.0, 279.0, 240.0], "includesElement__atomic_volume": [17.0, 33.7, 8.54], "includesElement__atomic_weight": [30.97376, 87.62, 192.217], "includesElement__covalent_radius_cordero": [107.0, 195.0, 141.0], "includesElement__covalent_radius_pyykko": [111.0, 185.0, 122.0], "includesElement__covalent_radius_pyykko_double": [102.0, 157.0, 115.0], "includesElement__covalent_radius_pyykko_triple": [94.0, 139.0, 107.0], "includesElement__density": [1.823, 2.64, 22.5622], "includesElement__dipole_polarizability": [25.0, 197.2, 54.0], "includesElement__dipole_polarizability_unc": [1.0, 0.2, 7.0], "includesElement__discovery_year": [1669, 1790, 1804], "includesElement__electron_affinity": [0.746607, 0.048, 1.5638], "includesElement__electronegativity_allred-rochow": [0.0003895788, 8.327246e-05, 0.0002620263], "includesElement__electronegativity_cottrell-sutton": [0.2079501, 0.1241185, 0.1787938], "includesElement__electronegativity_ghosh": [0.206931, 0.1185082, 0.25106], "includesElement__electronegativity_gordy": [0.04324324, 0.01540541, 0.03196721], "includesElement__electronegativity_mulliken": [5.616646, 2.871434, 5.26541], "includesElement__electronegativity_nagle": [0.5848035, 0.2164584, 0.5503212], "includesElement__electronegativity_pauling": [2.19, 0.95, 2.2], "includesElement__electronegativity_sanderson": [0.4510269, 0.2631786, 1.475998], "includesElement__en_ghosh": [0.206931, 0.1185082, 0.25106], "includesElement__en_pauling": [2.19, 0.95, 2.2], "includesElement__evaporation_heat": [49.8, 144.0, 604.0], "includesElement__fusion_heat": [2.51, 9.2, 27.61], "includesElement__glawe_number": [89, 15, 62], "includesElement__group_id": [15, 2, 9], "includesElement__heat_of_formation": [316.5, 164.0, 669.0], "includesElement__is_radioactive": [false], "includesElement__lattice_constant": [7.17, 6.08, 3.84], "includesElement__mendeleev_number": [94, 8, 65], "includesElement__molar_heat_capacity": [23.824, 26.79, 25.1], "includesElement__period": [3, 5, 6], "includesElement__pettifor_number": [90, 15, 65], "includesElement__specific_heat_capacity": [0.769, 0.306, 0.131], "includesElement__vdw_radius": [180.0, 249.0, 213.0], "includesElement__vdw_radius_alvarez": [190.0, 284.0, 241.0], "includesElement__vdw_radius_mm3": [222.0, 300.0, 236.0], "includesElement__vdw_radius_uff": [414.7, 364.1, 284.0], "includesElement__abundance_sea": [0.06, 7.9], "includesElement__atomic_weight_uncertainty": [5e-09, 0.01, 0.003], "includesElement__c6_gb": [187.0, 3230.0, 522.0], "includesElement__electronegativity_allen": [13.33, 5.695, 9.96], "includesElement__en_allen": [13.33, 5.695, 9.96], "includesElement__metallic_radius": [110.0, 191.0, 127.0], "includesElement__metallic_radius_c12": [128.0, 215.0, 136.0], "includesElement__vdw_radius_batsanov": [195.0, 255.0, 200.0], "includesElement__c6": [185.0, 3175.0], "includesElement__is_monoisotopic": [true], "includesElement__vdw_radius_dreiding": [415.0], "includesElement__gas_basicity": [604.8], "includesElement__proton_affinity": [626.8], "includesElement__vdw_radius_bondi": [180.0], "includesElement__covalent_radius_bragg": [195.0], "includesElement__vdw_radius_truhlar": [249.0], "includesElement__thermal_conductivity": [147.0], "formula": ["Ir4P4Sr4"], "spacegroup": ["198"], "thermalConductivity": [1.99826], "icsd": ["155712"], "band_gap": [0.0], "density": [8.068405], "density_atomic": [21.32241], "deprecated": [false], "efermi": [5.645517], "energy_above_hull": [0.0], "energy_per_atom": [-26.61565], "formation_energy_per_atom": [-1.113283], "homogeneous_poisson": [0.356], "is_gap_direct": [false], "is_magnetic": [false], "is_metal": [true], "is_stable": [true], "nelements": [3], "nsites": [12], "num_magnetic_sites": [0], "num_unique_magnetic_sites": [0], "theoretical": [false], "total_magnetization": [1e-07], "total_magnetization_normalized_formula_units": [2.5e-08], "total_magnetization_normalized_vol": [3.908252e-10], "uncorrected_energy_per_atom": [-26.61565], "universal_anisotropy": [0.646], "volume": [255.8689], "equilibrium_reaction_energy_per_atom": [-0.1517451]}