{"includesElement": ["", "Zn", "Se", "Y"], "includesElement___series_id": [8, 1], "includesElement__abundance_crust": [70.0, 0.05, 33.0], "includesElement__atomic_number": [30, 34, 39], "includesElement__atomic_radius": [135.0, 115.0, 180.0], "includesElement__atomic_radius_rahm": [222.0, 224.0, 274.0], "includesElement__atomic_volume": [9.2, 16.5, 19.8], "includesElement__atomic_weight": [65.38, 78.971, 88.90584], "includesElement__covalent_radius_cordero": [122.0, 120.0, 190.0], "includesElement__covalent_radius_pyykko": [118.0, 116.0, 163.0], "includesElement__covalent_radius_pyykko_double": [120.0, 107.0, 130.0], "includesElement__density": [7.134, 4.809, 4.47], "includesElement__dipole_polarizability": [38.67, 28.9, 162.0], "includesElement__dipole_polarizability_unc": [0.3, 1.0, 12.0], "includesElement__electronegativity_allred-rochow": [0.0003124102, 0.0005164982, 0.0001129135], "includesElement__electronegativity_cottrell-sutton": [0.1920011, 0.2447729, 0.1356647], "includesElement__electronegativity_ghosh": [0.1551518, 0.2240328, 0.1216986], "includesElement__electronegativity_gordy": [0.03686441, 0.05991379, 0.01840491], "includesElement__electronegativity_mulliken": [4.6971, 5.886531, 3.26213], "includesElement__electronegativity_nagle": [0.6770213, 0.592131, 0.2645668], "includesElement__electronegativity_pauling": [1.65, 2.55, 1.22], "includesElement__electronegativity_sanderson": [0.8100877, 0.9659121, 0.3923941], "includesElement__en_ghosh": [0.1551518, 0.2240328, 0.1216986], "includesElement__en_pauling": [1.65, 2.55, 1.22], "includesElement__evaporation_heat": [114.8, 59.7, 367.0], "includesElement__fusion_heat": [7.28, 5.23, 11.5], "includesElement__glawe_number": [74, 95, 21], "includesElement__group_id": [12, 16, 3], "includesElement__heat_of_formation": [130.4, 227.2, 424.7], "includesElement__is_radioactive": [false], "includesElement__lattice_constant": [2.66, 4.36, 3.65], "includesElement__mendeleev_number": [77, 101, 12], "includesElement__molar_heat_capacity": [25.39, 25.363, 26.53], "includesElement__period": [4, 5], "includesElement__pettifor_number": [76, 93, 19], "includesElement__specific_heat_capacity": [0.388, 0.321, 0.298], "includesElement__vdw_radius": [201.0, 190.0, 232.0], "includesElement__vdw_radius_alvarez": [239.0, 182.0, 275.0], "includesElement__vdw_radius_mm3": [229.0, 271.0], "includesElement__vdw_radius_uff": [276.3, 420.5, 334.5], "includesElement__abundance_sea": [0.0049, 0.0002, 1.3e-05], "includesElement__atomic_weight_uncertainty": [0.02, 0.008, 2e-05], "includesElement__c6_gb": [276.0, 233.0, 2600.0], "includesElement__covalent_radius_bragg": [132.0, 117.0], "includesElement__electronegativity_allen": [9.395, 14.34, 6.631], "includesElement__en_allen": [9.395, 14.34, 6.631], "includesElement__metallic_radius": [121.0, 117.0, 162.0], "includesElement__metallic_radius_c12": [134.0, 140.0, 180.0], "includesElement__thermal_conductivity": [116.0, 0.52], "includesElement__vdw_radius_batsanov": [210.0, 190.0, 240.0], "includesElement__c6": [284.0, 210.0], "includesElement__gas_basicity": [586.0, 945.9], "includesElement__proton_affinity": [608.6, 967.0], "includesElement__covalent_radius_pyykko_triple": [107.0, 124.0], "includesElement__discovery_year": [1818, 1789], "includesElement__electron_affinity": [2.02067, 0.307], "includesElement__vdw_radius_dreiding": [403.0], "includesElement__vdw_radius_bondi": [190.0], "includesElement__is_monoisotopic": [true], "formula": ["Se8Y4Zn2"], "spacegroup": ["227"], "thermalConductivity": [1.73594], "icsd": ["652188"], "band_gap": [0.239], "density": [4.810689], "density_atomic": [27.56784], "deprecated": [false], "efermi": [1.947754], "energy_above_hull": [0.0487335], "energy_per_atom": [-5.80495], "formation_energy_per_atom": [-1.767582], "is_gap_direct": [true], "is_magnetic": [false], "is_metal": [false], "is_stable": [false], "nelements": [3], "nsites": [14], "num_magnetic_sites": [0], "num_unique_magnetic_sites": [0], "theoretical": [false], "total_magnetization": [9.46e-05], "total_magnetization_normalized_formula_units": [4.73e-05], "total_magnetization_normalized_vol": [2.451096e-07], "uncorrected_energy_per_atom": [-5.535236], "volume": [385.9498], "cbm": [2.0306], "vbm": [1.7916]}