{"includesElement": ["", "Th", "Co", "C"], "includesElement___series_id": [10, 8, 1], "includesElement__abundance_crust": [9.6, 25.0, 200.0], "includesElement__atomic_number": [90, 27, 6], "includesElement__atomic_radius": [180.0, 135.0, 70.0], "includesElement__atomic_radius_rahm": [288.0, 233.0, 190.0], "includesElement__atomic_volume": [19.8, 6.7, 5.3], "includesElement__atomic_weight": [232.0377, 58.93319, 12.011], "includesElement__covalent_radius_cordero": [206.0, 138.0, 73.0], "includesElement__covalent_radius_pyykko": [175.0, 111.0, 75.0], "includesElement__covalent_radius_pyykko_double": [143.0, 103.0, 67.0], "includesElement__covalent_radius_pyykko_triple": [136.0, 96.0, 60.0], "includesElement__density": [11.7, 8.86, 2.2], "includesElement__dipole_polarizability": [217.0, 55.0, 11.3], "includesElement__dipole_polarizability_unc": [54.0, 4.0, 0.2], "includesElement__discovery_year": [1828, 1739], "includesElement__electronegativity_allred-rochow": [0.0001028571, 0.0003165327, 0.0005777778], "includesElement__electronegativity_cottrell-sutton": [0.1341641, 0.1874437, 0.2081666], "includesElement__electronegativity_ghosh": [0.10277, 0.1432363, 0.224776], "includesElement__electronegativity_gordy": [0.018, 0.03513514, 0.04333333], "includesElement__electronegativity_mulliken": [3.15335, 4.271633, 6.261208], "includesElement__electronegativity_nagle": [0.2641598, 0.5469655, 0.7073926], "includesElement__electronegativity_pauling": [1.3, 1.88, 2.55], "includesElement__electronegativity_sanderson": [0.5557019, 0.8832424, 0.427525], "includesElement__en_ghosh": [0.10277, 0.1432363, 0.224776], "includesElement__en_pauling": [1.3, 1.88, 2.55], "includesElement__evaporation_heat": [513.7, 389.1], "includesElement__fusion_heat": [16.11, 15.48], "includesElement__glawe_number": [34, 70, 87], "includesElement__heat_of_formation": [602.0, 426.7, 716.87], "includesElement__is_radioactive": [true, false], "includesElement__lattice_constant": [5.08, 2.51, 3.57], "includesElement__mendeleev_number": [16, 63, 87], "includesElement__molar_heat_capacity": [27.32, 24.81, 8.517], "includesElement__period": [7, 4, 2], "includesElement__pettifor_number": [47, 64, 95], "includesElement__specific_heat_capacity": [0.118, 0.421, 0.709], "includesElement__vdw_radius": [245.0, 200.0, 170.0], "includesElement__vdw_radius_alvarez": [293.0, 240.0, 177.0], "includesElement__vdw_radius_mm3": [274.0, 223.0, 204.0], "includesElement__vdw_radius_uff": [339.6, 287.2, 385.1], "includesElement__abundance_sea": [1e-06, 2e-05, 28.0], "includesElement__atomic_weight_uncertainty": [0.0004, 4e-06], "includesElement__vdw_radius_batsanov": [240.0, 200.0, 170.0], "includesElement__electron_affinity": [0.6622565, 1.262119], "includesElement__group_id": [9, 14], "includesElement__c6_gb": [461.0, 47.9], "includesElement__covalent_radius_bragg": [137.0, 77.0], "includesElement__electronegativity_allen": [10.86, 15.05], "includesElement__en_allen": [10.86, 15.05], "includesElement__metallic_radius": [116.0], "includesElement__metallic_radius_c12": [125.0, 86.0], "includesElement__thermal_conductivity": [100.0, 1.59], "includesElement__c6": [408.0, 46.6], "includesElement__is_monoisotopic": [true], "includesElement__gas_basicity": [719.8], "includesElement__proton_affinity": [742.7], "includesElement__vdw_radius_dreiding": [389.83], "includesElement__vdw_radius_bondi": [170.0], "includesElement__vdw_radius_rt": [177.0], "formula": ["C2Co1Th1"], "spacegroup": ["38"], "thermalConductivity": [15.5496], "icsd": ["601561"], "band_gap": [0.0], "density": [9.950138], "density_atomic": [13.14197], "deprecated": [false], "efermi": [8.119065], "energy_above_hull": [0.0], "energy_per_atom": [-8.557964], "formation_energy_per_atom": [-0.3068122], "homogeneous_poisson": [0.279], "is_gap_direct": [false], "is_magnetic": [false], "is_metal": [true], "is_stable": [true], "nelements": [3], "nsites": [4], "num_magnetic_sites": [0], "num_unique_magnetic_sites": [0], "theoretical": [false], "total_magnetization": [4.5e-06], "total_magnetization_normalized_formula_units": [4.5e-06], "total_magnetization_normalized_vol": [8.560362e-08], "uncorrected_energy_per_atom": [-26.9892], "universal_anisotropy": [0.303], "volume": [52.56787], "equilibrium_reaction_energy_per_atom": [-0.1140681]}