{"includesElement": ["", "Be", "Au"], "includesElement___series_id": [4, 8], "includesElement__abundance_crust": [2.8, 0.004], "includesElement__atomic_number": [4, 79], "includesElement__atomic_radius": [105.0, 135.0], "includesElement__atomic_radius_rahm": [219.0, 226.0], "includesElement__atomic_volume": [5.0, 10.2], "includesElement__atomic_weight": [9.012183, 196.9666], "includesElement__covalent_radius_cordero": [96.0, 136.0], "includesElement__covalent_radius_pyykko": [102.0, 124.0], "includesElement__covalent_radius_pyykko_double": [90.0, 121.0], "includesElement__covalent_radius_pyykko_triple": [85.0, 123.0], "includesElement__density": [1.85, 19.3], "includesElement__dipole_polarizability": [37.74, 36.0], "includesElement__dipole_polarizability_unc": [0.03, 3.0], "includesElement__discovery_year": [1798], "includesElement__electron_affinity": [-2.4, 2.30863], "includesElement__electronegativity_allred-rochow": [0.0001874279, 0.0002406348], "includesElement__electronegativity_cottrell-sutton": [0.1382666, 0.1727388], "includesElement__electronegativity_ghosh": [0.144986, 0.26137], "includesElement__electronegativity_gordy": [0.01911765, 0.02983871], "includesElement__electronegativity_mulliken": [3.461349, 5.767091], "includesElement__electronegativity_nagle": [0.3756148, 0.67354], "includesElement__electronegativity_pauling": [1.57, 2.4], "includesElement__electronegativity_sanderson": [0.1268473, 1.426701], "includesElement__en_ghosh": [0.144986, 0.26137], "includesElement__en_pauling": [1.57, 2.4], "includesElement__evaporation_heat": [309.0, 340.0], "includesElement__fusion_heat": [12.21, 12.68], "includesElement__glawe_number": [77, 66], "includesElement__group_id": [2, 11], "includesElement__heat_of_formation": [324.0, 368.2], "includesElement__is_radioactive": [false], "includesElement__lattice_constant": [2.29, 4.08], "includesElement__mendeleev_number": [75, 73], "includesElement__molar_heat_capacity": [16.443, 25.418], "includesElement__period": [2, 6], "includesElement__pettifor_number": [77, 70], "includesElement__specific_heat_capacity": [1.825, 0.129], "includesElement__vdw_radius": [153.0, 214.0], "includesElement__vdw_radius_alvarez": [198.0, 232.0], "includesElement__vdw_radius_mm3": [223.0, 243.0], "includesElement__vdw_radius_uff": [274.5, 329.3], "includesElement__abundance_sea": [5.6e-06, 4e-06], "includesElement__atomic_weight_uncertainty": [5e-07, 5e-06], "includesElement__c6_gb": [214.0, 427.0], "includesElement__covalent_radius_bragg": [115.0], "includesElement__electronegativity_allen": [9.323, 11.33], "includesElement__en_allen": [9.323, 11.33], "includesElement__metallic_radius": [89.0, 134.0], "includesElement__metallic_radius_c12": [112.0, 144.0], "includesElement__thermal_conductivity": [201.0, 318.0], "includesElement__vdw_radius_batsanov": [190.0, 210.0], "includesElement__c6": [227.0], "includesElement__is_monoisotopic": [true], "includesElement__vdw_radius_truhlar": [153.0], "formula": ["Au1Be5"], "spacegroup": ["216"], "thermalConductivity": [18.1344], "icsd": ["150580"], "band_gap": [0.0], "density": [7.090203], "density_atomic": [9.447216], "deprecated": [false], "efermi": [6.206295], "energy_above_hull": [0.0], "energy_per_atom": [-3.747177], "formation_energy_per_atom": [-0.08535216], "homogeneous_poisson": [0.175], "is_gap_direct": [false], "is_magnetic": [false], "is_metal": [true], "is_stable": [true], "nelements": [2], "nsites": [6], "num_magnetic_sites": [0], "num_unique_magnetic_sites": [0], "theoretical": [false], "total_magnetization": [3e-07], "total_magnetization_normalized_formula_units": [3e-07], "total_magnetization_normalized_vol": [5.292565e-09], "uncorrected_energy_per_atom": [-12.1429], "universal_anisotropy": [0.021], "volume": [56.68329], "equilibrium_reaction_energy_per_atom": [-0.0399546]}