{"includesElement": ["", "Rh", "Mo"], "includesElement___series_id": [8], "includesElement__abundance_crust": [0.001, 1.2], "includesElement__atomic_number": [45, 42], "includesElement__atomic_radius": [135.0, 145.0], "includesElement__atomic_radius_rahm": [233.0, 244.0], "includesElement__atomic_volume": [8.3, 9.4], "includesElement__atomic_weight": [102.9055, 95.95], "includesElement__covalent_radius_cordero": [142.0, 154.0], "includesElement__covalent_radius_pyykko": [125.0, 138.0], "includesElement__covalent_radius_pyykko_double": [110.0, 121.0], "includesElement__covalent_radius_pyykko_triple": [106.0, 113.0], "includesElement__density": [12.4, 10.2], "includesElement__dipole_polarizability": [66.0, 87.0], "includesElement__dipole_polarizability_unc": [10.0, 6.0], "includesElement__discovery_year": [1803, 1778], "includesElement__electron_affinity": [1.137, 0.748], "includesElement__electronegativity_allred-rochow": [0.0002176, 0.0001549044], "includesElement__electronegativity_cottrell-sutton": [0.1649242, 0.1462081], "includesElement__electronegativity_ghosh": [0.1408379, 0.1312672], "includesElement__electronegativity_gordy": [0.0272, 0.02137681], "includesElement__electronegativity_mulliken": [4.29795, 3.920215], "includesElement__electronegativity_nagle": [0.5147142, 0.4100883], "includesElement__electronegativity_pauling": [2.28, 2.16], "includesElement__electronegativity_sanderson": [0.9761915, 0.685295], "includesElement__en_ghosh": [0.1408379, 0.1312672], "includesElement__en_pauling": [2.28, 2.16], "includesElement__evaporation_heat": [494.0, 590.0], "includesElement__fusion_heat": [21.8, 28.0], "includesElement__glawe_number": [63, 56], "includesElement__group_id": [9, 6], "includesElement__heat_of_formation": [556.0, 658.98], "includesElement__is_radioactive": [false], "includesElement__lattice_constant": [3.8, 3.15], "includesElement__mendeleev_number": [64, 52], "includesElement__molar_heat_capacity": [24.98, 24.06], "includesElement__period": [5], "includesElement__pettifor_number": [66, 55], "includesElement__specific_heat_capacity": [0.243, 0.251], "includesElement__vdw_radius": [210.0, 217.0], "includesElement__vdw_radius_alvarez": [244.0, 245.0], "includesElement__vdw_radius_mm3": [234.0, 239.0], "includesElement__vdw_radius_uff": [292.9, 305.2], "includesElement__atomic_weight_uncertainty": [2e-05, 0.01], "includesElement__c6_gb": [708.0, 1030.0], "includesElement__electronegativity_allen": [9.259, 8.71], "includesElement__en_allen": [9.259, 8.71], "includesElement__metallic_radius": [125.0, 130.0], "includesElement__metallic_radius_c12": [134.0, 139.0], "includesElement__thermal_conductivity": [150.0], "includesElement__vdw_radius_batsanov": [200.0, 210.0], "includesElement__is_monoisotopic": [true], "includesElement__gas_basicity": [745.4], "includesElement__proton_affinity": [768.0], "includesElement__abundance_sea": [0.01], "formula": ["Mo2Rh6"], "spacegroup": ["194"], "thermalConductivity": [6.76682], "icsd": ["105085"], "band_gap": [0.0], "density": [11.94957], "density_atomic": [14.05799], "deprecated": [false], "efermi": [7.737927], "energy_above_hull": [0.0], "energy_per_atom": [-24.88101], "formation_energy_per_atom": [-0.2608393], "homogeneous_poisson": [0.288], "is_gap_direct": [false], "is_magnetic": [false], "is_metal": [true], "is_stable": [true], "nelements": [2], "nsites": [8], "num_magnetic_sites": [0], "num_unique_magnetic_sites": [0], "theoretical": [false], "total_magnetization": [3e-07], "total_magnetization_normalized_formula_units": [1.5e-07], "total_magnetization_normalized_vol": [2.667522e-09], "uncorrected_energy_per_atom": [-24.88101], "universal_anisotropy": [0.063], "volume": [112.4639], "equilibrium_reaction_energy_per_atom": [-0.163871]}