{"includesElement": ["", "Ni", "Ge", "Sc"], "includesElement___series_id": [8, 5], "includesElement__abundance_crust": [84.0, 1.5, 22.0], "includesElement__atomic_number": [28, 32, 21], "includesElement__atomic_radius": [135.0, 125.0, 160.0], "includesElement__atomic_radius_rahm": [229.0, 234.0, 263.0], "includesElement__atomic_volume": [6.6, 13.6, 15.0], "includesElement__atomic_weight": [58.6934, 72.63, 44.95591], "includesElement__covalent_radius_cordero": [124.0, 120.0, 170.0], "includesElement__covalent_radius_pyykko": [110.0, 121.0, 148.0], "includesElement__covalent_radius_pyykko_double": [101.0, 111.0, 116.0], "includesElement__covalent_radius_pyykko_triple": [101.0, 114.0], "includesElement__density": [8.9, 5.3234, 2.99], "includesElement__dipole_polarizability": [49.0, 40.0, 97.0], "includesElement__dipole_polarizability_unc": [3.0, 1.0, 10.0], "includesElement__discovery_year": [1751, 1886, 1879], "includesElement__electron_affinity": [1.156, 1.232712, 0.188], "includesElement__electronegativity_allred-rochow": [0.0003347107, 0.0003859026, 0.0001369613], "includesElement__electronegativity_cottrell-sutton": [0.1918806, 0.2160884, 0.1423737], "includesElement__electronegativity_ghosh": [0.1472068, 0.1895892, 0.1193833], "includesElement__electronegativity_gordy": [0.03681818, 0.04669421, 0.02027027], "includesElement__electronegativity_mulliken": [4.397939, 4.566073, 3.374745], "includesElement__electronegativity_nagle": [0.588755, 0.4641589, 0.3138941], "includesElement__electronegativity_pauling": [1.91, 2.01, 1.36], "includesElement__electronegativity_sanderson": [0.937704, 0.8001471, 0.3038674], "includesElement__en_ghosh": [0.1472068, 0.1895892, 0.1193833], "includesElement__en_pauling": [1.91, 2.01, 1.36], "includesElement__evaporation_heat": [378.6, 328.0, 332.7], "includesElement__fusion_heat": [17.61, 36.8, 15.8], "includesElement__glawe_number": [69, 84, 48], "includesElement__group_id": [10, 14, 3], "includesElement__heat_of_formation": [430.1, 372.0, 377.8], "includesElement__is_radioactive": [false], "includesElement__lattice_constant": [3.52, 5.66, 3.31], "includesElement__mendeleev_number": [67, 89, 11], "includesElement__molar_heat_capacity": [26.07, 23.222, 25.52], "includesElement__period": [4], "includesElement__pettifor_number": [67, 84, 20], "includesElement__specific_heat_capacity": [0.444, 0.32, 0.568], "includesElement__vdw_radius": [197.0, 211.0, 215.0], "includesElement__vdw_radius_alvarez": [240.0, 229.0, 258.0], "includesElement__vdw_radius_mm3": [222.0, 244.0, 261.0], "includesElement__vdw_radius_uff": [283.4, 428.0, 329.5], "includesElement__abundance_sea": [0.00056, 5e-05, 6e-07], "includesElement__atomic_weight_uncertainty": [0.0004, 0.008, 5e-06], "includesElement__c6_gb": [393.0, 365.0, 1570.0], "includesElement__covalent_radius_bragg": [135.0], "includesElement__electronegativity_allen": [11.13, 11.8, 7.042], "includesElement__en_allen": [11.13, 11.8, 7.042], "includesElement__metallic_radius": [115.0, 124.0, 144.0], "includesElement__metallic_radius_c12": [124.0, 144.0, 162.0], "includesElement__thermal_conductivity": [90.9, 60.2, 15.8], "includesElement__vdw_radius_batsanov": [200.0, 210.0, 230.0], "includesElement__c6": [373.0, 354.0, 1383.0], "includesElement__gas_basicity": [714.1, 892.0], "includesElement__proton_affinity": [737.0, 914.0], "includesElement__vdw_radius_dreiding": [427.0], "includesElement__vdw_radius_truhlar": [211.0], "includesElement__is_monoisotopic": [true], "formula": ["Ge7Ni16Sc6"], "spacegroup": ["225"], "thermalConductivity": [2.21504], "icsd": ["637387"], "band_gap": [0.0], "density": [7.24973], "density_atomic": [13.56369], "deprecated": [false], "efermi": [7.488463], "energy_above_hull": [0.0], "energy_per_atom": [-6.220946], "formation_energy_per_atom": [-0.6058358], "is_gap_direct": [false], "is_magnetic": [false], "is_metal": [true], "is_stable": [true], "nelements": [3], "nsites": [29], "num_magnetic_sites": [0], "num_unique_magnetic_sites": [0], "theoretical": [false], "total_magnetization": [0.0018759], "total_magnetization_normalized_formula_units": [0.0018759], "total_magnetization_normalized_vol": [4.76907e-06], "uncorrected_energy_per_atom": [-6.220946], "volume": [393.3471], "equilibrium_reaction_energy_per_atom": [-0.0325604]}