{"includesElement": ["", "Ba", "S", "Hf"], "includesElement___series_id": [4, 1, 8], "includesElement__abundance_crust": [425.0, 350.0, 3.0], "includesElement__atomic_number": [56, 16, 72], "includesElement__atomic_radius": [215.0, 100.0, 155.0], "includesElement__atomic_radius_rahm": [293.0, 214.0, 264.0], "includesElement__atomic_volume": [39.0, 15.5, 13.6], "includesElement__atomic_weight": [137.327, 32.06, 178.49], "includesElement__covalent_radius_cordero": [215.0, 105.0, 175.0], "includesElement__covalent_radius_pyykko": [196.0, 103.0, 152.0], "includesElement__covalent_radius_pyykko_double": [161.0, 94.0, 128.0], "includesElement__covalent_radius_pyykko_triple": [149.0, 95.0, 122.0], "includesElement__density": [3.62, 2.07, 13.3], "includesElement__dipole_polarizability": [272.0, 19.4, 103.0], "includesElement__dipole_polarizability_unc": [10.0, 0.1, 6.0], "includesElement__discovery_year": [1808, 1923], "includesElement__electron_affinity": [0.14462, 2.077104, 0.014], "includesElement__electronegativity_allred-rochow": [7.418784e-05, 0.0005137148, 0.00013634], "includesElement__electronegativity_cottrell-sutton": [0.1205853, 0.2300274, 0.1439572], "includesElement__electronegativity_ghosh": [0.1586786, 0.23596, 0.229987], "includesElement__electronegativity_gordy": [0.01454082, 0.05291262, 0.02072368], "includesElement__electronegativity_mulliken": [2.678142, 6.218557, 3.419535], "includesElement__electronegativity_nagle": [0.1944556, 0.6762644, 0.3386421], "includesElement__electronegativity_pauling": [0.89, 2.58, 1.3], "includesElement__electronegativity_sanderson": [0.3032951, 0.6397251, 0.7352125], "includesElement__en_ghosh": [0.1586786, 0.23596, 0.229987], "includesElement__en_pauling": [0.89, 2.58, 1.3], "includesElement__evaporation_heat": [142.0, 10.5, 575.0], "includesElement__fusion_heat": [7.66, 1.23, 25.1], "includesElement__glawe_number": [14, 96, 50], "includesElement__group_id": [2, 16, 4], "includesElement__heat_of_formation": [179.1, 277.17, 618.4], "includesElement__is_radioactive": [false], "includesElement__lattice_constant": [5.02, 10.47, 3.2], "includesElement__mendeleev_number": [9, 100, 45], "includesElement__molar_heat_capacity": [28.07, 22.7, 25.73], "includesElement__period": [6, 3], "includesElement__pettifor_number": [14, 94, 50], "includesElement__specific_heat_capacity": [0.204, 0.708, 0.144], "includesElement__vdw_radius": [268.0, 180.0, 223.0], "includesElement__vdw_radius_alvarez": [303.0, 189.0, 263.0], "includesElement__vdw_radius_mm3": [307.0, 215.0, 253.0], "includesElement__vdw_radius_uff": [370.3, 403.5, 314.1], "includesElement__abundance_sea": [0.013, 905.0, 7e-06], "includesElement__atomic_weight_uncertainty": [0.007, 0.02], "includesElement__c6_gb": [5540.0, 140.0, 1040.0], "includesElement__covalent_radius_bragg": [210.0, 102.0], "includesElement__electronegativity_allen": [5.211, 15.31, 6.83], "includesElement__en_allen": [5.211, 15.31, 6.83], "includesElement__metallic_radius": [198.0, 104.0, 144.0], "includesElement__metallic_radius_c12": [222.0, 127.0, 159.0], "includesElement__vdw_radius_batsanov": [270.0, 180.0, 225.0], "includesElement__vdw_radius_truhlar": [268.0], "includesElement__thermal_conductivity": [0.27, 23.0], "includesElement__c6": [134.0], "includesElement__vdw_radius_dreiding": [403.0], "includesElement__gas_basicity": [640.2], "includesElement__proton_affinity": [664.3], "includesElement__vdw_radius_bondi": [180.0], "includesElement__vdw_radius_rt": [181.0], "formula": ["Ba2Hf1S4"], "spacegroup": ["139"], "thermalConductivity": [3.77141], "icsd": ["80652"], "band_gap": [0.8648], "density": [4.976572], "density_atomic": [27.71397], "deprecated": [false], "efermi": [2.542399], "energy_above_hull": [0.0], "energy_per_atom": [-6.543292], "formation_energy_per_atom": [-2.207781], "homogeneous_poisson": [0.273], "is_gap_direct": [false], "is_magnetic": [false], "is_metal": [false], "is_stable": [true], "nelements": [3], "nsites": [7], "num_magnetic_sites": [0], "num_unique_magnetic_sites": [0], "theoretical": [false], "total_magnetization": [0.0], "total_magnetization_normalized_formula_units": [0.0], "total_magnetization_normalized_vol": [0.0], "uncorrected_energy_per_atom": [-20.80265], "universal_anisotropy": [0.533], "volume": [193.9978], "cbm": [3.3435], "e_electronic": [6.743406], "e_ionic": [32.33036], "e_total": [39.07376], "equilibrium_reaction_energy_per_atom": [-0.01432778], "n": [2.596807], "vbm": [2.4787]}