{"includesElement": ["", "Sc", "Os", "B"], "includesElement___series_id": [8, 5], "includesElement__abundance_crust": [22.0, 0.0015, 10.0], "includesElement__atomic_number": [21, 76, 5], "includesElement__atomic_radius": [160.0, 130.0, 85.0], "includesElement__atomic_radius_rahm": [263.0, 244.0, 205.0], "includesElement__atomic_volume": [15.0, 8.43, 4.6], "includesElement__atomic_weight": [44.95591, 190.23, 10.81], "includesElement__covalent_radius_cordero": [170.0, 144.0, 84.0], "includesElement__covalent_radius_pyykko": [148.0, 129.0, 85.0], "includesElement__covalent_radius_pyykko_double": [116.0, 78.0], "includesElement__covalent_radius_pyykko_triple": [114.0, 109.0, 73.0], "includesElement__density": [2.99, 22.5872, 2.34], "includesElement__dipole_polarizability": [97.0, 57.0, 20.5], "includesElement__dipole_polarizability_unc": [10.0, 3.0, 0.1], "includesElement__discovery_year": [1879, 1804, 1808], "includesElement__electron_affinity": [0.188, 1.1, 0.279723], "includesElement__electronegativity_allred-rochow": [0.0001369613, 0.000225347, 0.0003598616], "includesElement__electronegativity_cottrell-sutton": [0.1423737, 0.1704986, 0.1748949], "includesElement__electronegativity_ghosh": [0.1193833, 0.2479845, 0.184886], "includesElement__electronegativity_gordy": [0.02027027, 0.02906977, 0.03058824], "includesElement__electronegativity_mulliken": [3.374745, 4.769115, 4.288871], "includesElement__electronegativity_nagle": [0.3138941, 0.5196828, 0.5269739], "includesElement__electronegativity_pauling": [1.36, 2.2, 2.04], "includesElement__electronegativity_sanderson": [0.3038674, 1.239276, 0.2546274], "includesElement__en_ghosh": [0.1193833, 0.2479845, 0.184886], "includesElement__en_pauling": [1.36, 2.2, 2.04], "includesElement__evaporation_heat": [332.7, 738.0, 504.5], "includesElement__fusion_heat": [15.8, 31.7, 23.6], "includesElement__glawe_number": [48, 60, 86], "includesElement__group_id": [3, 8, 13], "includesElement__heat_of_formation": [377.8, 787.0, 565.0], "includesElement__is_radioactive": [false], "includesElement__lattice_constant": [3.31, 2.74, 8.73], "includesElement__mendeleev_number": [11, 61, 81], "includesElement__molar_heat_capacity": [25.52, 24.7, 11.087], "includesElement__period": [4, 6, 2], "includesElement__pettifor_number": [20, 62, 86], "includesElement__specific_heat_capacity": [0.568, 0.13, 1.026], "includesElement__vdw_radius": [215.0, 216.0, 192.0], "includesElement__vdw_radius_alvarez": [258.0, 248.0, 191.0], "includesElement__vdw_radius_mm3": [261.0, 235.0, 215.0], "includesElement__vdw_radius_uff": [329.5, 312.0, 408.3], "includesElement__abundance_sea": [6e-07, 4.44], "includesElement__atomic_weight_uncertainty": [5e-06, 0.03], "includesElement__c6_gb": [1570.0, 584.0, 99.2], "includesElement__electronegativity_allen": [7.042, 9.78, 12.13], "includesElement__en_allen": [7.042, 9.78, 12.13], "includesElement__metallic_radius": [144.0, 126.0, 80.0], "includesElement__metallic_radius_c12": [162.0, 135.0, 98.0], "includesElement__thermal_conductivity": [15.8, 27.4], "includesElement__vdw_radius_batsanov": [230.0, 200.0, 180.0], "includesElement__c6": [1383.0, 99.5], "includesElement__is_monoisotopic": [true], "includesElement__gas_basicity": [892.0], "includesElement__proton_affinity": [914.0], "includesElement__vdw_radius_dreiding": [402.0], "includesElement__vdw_radius_truhlar": [192.0], "formula": ["B8Os6Sc2"], "spacegroup": ["63"], "thermalConductivity": [12.5849], "icsd": ["91244"], "band_gap": [0.0], "density": [12.63889], "density_atomic": [10.82089], "deprecated": [false], "efermi": [8.149034], "energy_above_hull": [0.007941862], "energy_per_atom": [-8.792221], "formation_energy_per_atom": [-0.4507033], "is_gap_direct": [false], "is_magnetic": [false], "is_metal": [true], "is_stable": [false], "nelements": [3], "nsites": [16], "num_magnetic_sites": [0], "num_unique_magnetic_sites": [0], "theoretical": [false], "total_magnetization": [1.8e-05], "total_magnetization_normalized_formula_units": [9e-06], "total_magnetization_normalized_vol": [1.039656e-07], "uncorrected_energy_per_atom": [-8.792221], "volume": [173.1342]}