{"includesElement": ["", "Si", "F", "Rb"], "includesElement___series_id": [5, 6, 3], "includesElement__abundance_crust": [282000.0, 585.0, 90.0], "includesElement__atomic_number": [14, 9, 37], "includesElement__atomic_radius": [110.0, 50.0, 235.0], "includesElement__atomic_radius_rahm": [232.0, 163.0, 240.0], "includesElement__atomic_volume": [12.1, 17.1, 55.9], "includesElement__atomic_weight": [28.085, 18.9984, 85.4678], "includesElement__covalent_radius_cordero": [111.0, 57.0, 220.0], "includesElement__covalent_radius_pyykko": [116.0, 64.0, 210.0], "includesElement__covalent_radius_pyykko_double": [107.0, 59.0, 202.0], "includesElement__covalent_radius_pyykko_triple": [102.0, 53.0], "includesElement__density": [2.3296, 0.001553, 1.53], "includesElement__dipole_polarizability": [37.3, 3.74, 319.8], "includesElement__dipole_polarizability_unc": [0.7, 0.08, 0.3], "includesElement__discovery_year": [1824, 1886, 1861], "includesElement__electron_affinity": [1.389521, 3.40119, 0.48592], "includesElement__electronegativity_allred-rochow": [0.0003084126, 0.001269531, 4.988662e-05], "includesElement__electronegativity_cottrell-sutton": [0.1891451, 0.2850439, 0.1023533], "includesElement__electronegativity_ghosh": [0.178503, 0.344443, 0.104686], "includesElement__electronegativity_gordy": [0.03577586, 0.08125, 0.01047619], "includesElement__electronegativity_mulliken": [4.770602, 10.412, 2.331524], "includesElement__electronegativity_nagle": [0.4750986, 1.232373, 0.1462314], "includesElement__electronegativity_pauling": [1.9, 3.98, 0.82], "includesElement__electronegativity_sanderson": [0.3468158, 1.017681, 0.1764136], "includesElement__en_ghosh": [0.178503, 0.344443, 0.104686], "includesElement__en_pauling": [1.9, 3.98, 0.82], "includesElement__evaporation_heat": [383.0, 6.54, 75.8], "includesElement__fusion_heat": [50.6, 0.51, 2.2], "includesElement__glawe_number": [85, 102, 9], "includesElement__group_id": [14, 17, 1], "includesElement__heat_of_formation": [450.0, 79.335, 80.9], "includesElement__is_radioactive": [false], "includesElement__lattice_constant": [5.43, 5.59], "includesElement__mendeleev_number": [88, 106, 4], "includesElement__molar_heat_capacity": [19.99, 31.304, 31.06], "includesElement__period": [3, 2, 5], "includesElement__pettifor_number": [85, 102, 9], "includesElement__specific_heat_capacity": [0.712, 0.824, 0.363], "includesElement__vdw_radius": [210.0, 147.0, 303.0], "includesElement__vdw_radius_alvarez": [219.0, 146.0, 321.0], "includesElement__vdw_radius_mm3": [229.0, 171.0, 325.0], "includesElement__vdw_radius_uff": [429.5, 336.4, 411.4], "includesElement__abundance_sea": [2.2, 1.3, 0.12], "includesElement__c6_gb": [308.0, 10.2, 4660.0], "includesElement__covalent_radius_bragg": [117.0, 67.0, 225.0], "includesElement__electronegativity_allen": [11.33, 24.8, 4.177], "includesElement__en_allen": [11.33, 24.8, 4.177], "includesElement__metallic_radius": [117.0, 216.0], "includesElement__metallic_radius_c12": [138.0, 248.0], "includesElement__thermal_conductivity": [149.0, 0.028, 58.2], "includesElement__vdw_radius_batsanov": [210.0, 150.0, 290.0], "includesElement__c6": [305.0, 9.52, 4769.0], "includesElement__vdw_radius_dreiding": [427.0, 347.2], "includesElement__gas_basicity": [814.1, 315.1], "includesElement__proton_affinity": [837.0, 340.1], "includesElement__vdw_radius_bondi": [210.0, 147.0], "includesElement__atomic_weight_uncertainty": [6e-09, 0.0003], "includesElement__is_monoisotopic": [true], "includesElement__vdw_radius_rt": [146.0], "includesElement__vdw_radius_truhlar": [303.0], "formula": ["F6Rb2Si1"], "spacegroup": ["225"], "thermalConductivity": [1.93847], "icsd": ["38547"], "band_gap": [6.9955], "density": [3.566956], "density_atomic": [16.19083], "deprecated": [false], "efermi": [-2.815371], "energy_above_hull": [0.0], "energy_per_atom": [-5.528872], "formation_energy_per_atom": [-3.433843], "homogeneous_poisson": [0.292], "is_gap_direct": [true], "is_magnetic": [false], "is_metal": [false], "is_stable": [true], "nelements": [3], "nsites": [9], "num_magnetic_sites": [0], "num_unique_magnetic_sites": [0], "theoretical": [false], "total_magnetization": [0.0], "total_magnetization_normalized_formula_units": [0.0], "total_magnetization_normalized_vol": [0.0], "uncorrected_energy_per_atom": [-9.535523], "universal_anisotropy": [0.007], "volume": [145.7175], "cbm": [4.1123], "e_electronic": [1.881025], "e_ionic": [3.684585], "e_total": [5.56561], "equilibrium_reaction_energy_per_atom": [-0.2260067], "n": [1.371505], "vbm": [-2.8832]}