{"includesElement": ["", "Bi", "Pd", "Y"], "includesElement___series_id": [7, 8], "includesElement__abundance_crust": [0.0085, 0.015, 33.0], "includesElement__atomic_number": [83, 46, 39], "includesElement__atomic_radius": [160.0, 140.0, 180.0], "includesElement__atomic_radius_rahm": [250.0, 215.0, 274.0], "includesElement__atomic_volume": [21.3, 8.9, 19.8], "includesElement__atomic_weight": [208.9804, 106.42, 88.90584], "includesElement__covalent_radius_cordero": [148.0, 139.0, 190.0], "includesElement__covalent_radius_pyykko": [151.0, 120.0, 163.0], "includesElement__covalent_radius_pyykko_double": [141.0, 117.0, 130.0], "includesElement__covalent_radius_pyykko_triple": [135.0, 112.0, 124.0], "includesElement__density": [9.79, 12.0, 4.47], "includesElement__dipole_polarizability": [48.0, 26.14, 162.0], "includesElement__dipole_polarizability_unc": [4.0, 0.1, 12.0], "includesElement__electron_affinity": [0.942362, 0.562, 0.307], "includesElement__electronegativity_allred-rochow": [0.0002763037, 0.0004756944, 0.0001129135], "includesElement__electronegativity_cottrell-sutton": [0.2042593, 0.2389212, 0.1356647], "includesElement__electronegativity_ghosh": [0.182377, 0.1440276, 0.1216986], "includesElement__electronegativity_gordy": [0.04172185, 0.05708333, 0.01840491], "includesElement__electronegativity_mulliken": [4.113939, 4.44943, 3.26213], "includesElement__electronegativity_nagle": [0.470518, 0.7259357, 0.2645668], "includesElement__electronegativity_pauling": [1.9, 2.2, 1.22], "includesElement__electronegativity_sanderson": [0.8136501, 1.124263, 0.3923941], "includesElement__en_ghosh": [0.182377, 0.1440276, 0.1216986], "includesElement__en_pauling": [1.9, 2.2, 1.22], "includesElement__evaporation_heat": [172.0, 372.4, 367.0], "includesElement__fusion_heat": [11.0, 17.24, 11.5], "includesElement__glawe_number": [92, 65, 21], "includesElement__group_id": [15, 10, 3], "includesElement__heat_of_formation": [209.6, 376.6, 424.7], "includesElement__is_radioactive": [false], "includesElement__lattice_constant": [4.75, 3.89, 3.65], "includesElement__mendeleev_number": [97, 68, 12], "includesElement__molar_heat_capacity": [25.52, 25.98, 26.53], "includesElement__period": [6, 5], "includesElement__pettifor_number": [87, 69, 19], "includesElement__specific_heat_capacity": [0.122, 0.246, 0.298], "includesElement__vdw_radius": [207.0, 210.0, 232.0], "includesElement__vdw_radius_alvarez": [254.0, 215.0, 275.0], "includesElement__vdw_radius_mm3": [266.0, 237.0, 271.0], "includesElement__vdw_radius_uff": [437.0, 289.9, 334.5], "includesElement__abundance_sea": [2e-05, 1.3e-05], "includesElement__atomic_weight_uncertainty": [1e-05, 0.01, 2e-05], "includesElement__c6_gb": [513.0, 628.0, 2600.0], "includesElement__covalent_radius_bragg": [148.0], "includesElement__electronegativity_allen": [11.9, 9.402, 6.631], "includesElement__en_allen": [11.9, 9.402, 6.631], "includesElement__metallic_radius": [151.0, 128.0, 162.0], "includesElement__metallic_radius_c12": [178.0, 137.0, 180.0], "includesElement__thermal_conductivity": [7.9, 71.8], "includesElement__vdw_radius_batsanov": [230.0, 205.0, 240.0], "includesElement__is_monoisotopic": [true], "includesElement__vdw_radius_truhlar": [207.0], "includesElement__discovery_year": [1803, 1789], "includesElement__gas_basicity": [673.4, 945.9], "includesElement__proton_affinity": [696.0, 967.0], "formula": ["Bi1Pd1Y1", "YBiPd"], "mp_id": ["1008624"], "spacegroup": ["216"], "thermalConductivity": [4.42091, 4.24], "icsd": ["616964"], "band_gap": [0.0], "density": [8.952998], "density_atomic": [24.99596], "deprecated": [false], "efermi": [5.397804], "energy_above_hull": [0.0], "energy_per_atom": [-6.123665], "formation_energy_per_atom": [-0.9471773], "is_gap_direct": [false], "is_magnetic": [false], "is_metal": [true], "is_stable": [true], "nelements": [3], "nsites": [3], "num_magnetic_sites": [0], "num_unique_magnetic_sites": [0], "theoretical": [false], "total_magnetization": [1e-07], "total_magnetization_normalized_formula_units": [1e-07], "total_magnetization_normalized_vol": [1.333549e-09], "uncorrected_energy_per_atom": [-34.9669], "volume": [74.98788], "equilibrium_reaction_energy_per_atom": [-0.1585985]}