{"includesElement": ["", "N", "S", "Th"], "includesElement___series_id": [1, 10], "includesElement__abundance_crust": [19.0, 350.0, 9.6], "includesElement__atomic_number": [7, 16, 90], "includesElement__atomic_radius": [65.0, 100.0, 180.0], "includesElement__atomic_radius_rahm": [179.0, 214.0, 288.0], "includesElement__atomic_volume": [17.3, 15.5, 19.8], "includesElement__atomic_weight": [14.007, 32.06, 232.0377], "includesElement__covalent_radius_cordero": [71.0, 105.0, 206.0], "includesElement__covalent_radius_pyykko": [71.0, 103.0, 175.0], "includesElement__covalent_radius_pyykko_double": [60.0, 94.0, 143.0], "includesElement__covalent_radius_pyykko_triple": [54.0, 95.0, 136.0], "includesElement__density": [0.001145, 2.07, 11.7], "includesElement__dipole_polarizability": [7.4, 19.4, 217.0], "includesElement__dipole_polarizability_unc": [0.2, 0.1, 54.0], "includesElement__discovery_year": [1772, 1828], "includesElement__electron_affinity": [-1.4, 2.077104], "includesElement__electronegativity_allred-rochow": [0.000773656, 0.0005137148, 0.0001028571], "includesElement__electronegativity_cottrell-sutton": [0.2343706, 0.2300274, 0.1341641], "includesElement__electronegativity_ghosh": [0.26493, 0.23596, 0.10277], "includesElement__electronegativity_gordy": [0.05492958, 0.05291262, 0.018], "includesElement__electronegativity_mulliken": [6.567065, 6.218557, 3.15335], "includesElement__electronegativity_nagle": [0.8774979, 0.6762644, 0.2641598], "includesElement__electronegativity_pauling": [3.04, 2.58, 1.3], "includesElement__electronegativity_sanderson": [0.577482, 0.6397251, 0.5557019], "includesElement__en_ghosh": [0.26493, 0.23596, 0.10277], "includesElement__en_pauling": [3.04, 2.58, 1.3], "includesElement__glawe_number": [88, 96, 34], "includesElement__group_id": [15, 16], "includesElement__heat_of_formation": [472.44, 277.17, 602.0], "includesElement__is_radioactive": [false, true], "includesElement__lattice_constant": [4.039, 10.47, 5.08], "includesElement__mendeleev_number": [93, 100, 16], "includesElement__molar_heat_capacity": [29.124, 22.7, 27.32], "includesElement__period": [2, 3, 7], "includesElement__pettifor_number": [100, 94, 47], "includesElement__specific_heat_capacity": [1.04, 0.708, 0.118], "includesElement__vdw_radius": [155.0, 180.0, 245.0], "includesElement__vdw_radius_alvarez": [166.0, 189.0, 293.0], "includesElement__vdw_radius_mm3": [193.0, 215.0, 274.0], "includesElement__vdw_radius_uff": [366.0, 403.5, 339.6], "includesElement__abundance_sea": [0.5, 905.0, 1e-06], "includesElement__c6_gb": [25.7, 140.0], "includesElement__covalent_radius_bragg": [65.0, 102.0], "includesElement__electronegativity_allen": [18.13, 15.31], "includesElement__en_allen": [18.13, 15.31], "includesElement__metallic_radius_c12": [53.0, 127.0], "includesElement__thermal_conductivity": [0.026, 0.27], "includesElement__vdw_radius_batsanov": [160.0, 180.0, 240.0], "includesElement__c6": [24.2, 134.0], "includesElement__vdw_radius_dreiding": [366.21, 403.0], "includesElement__gas_basicity": [318.7, 640.2], "includesElement__proton_affinity": [342.2, 664.3], "includesElement__vdw_radius_bondi": [155.0, 180.0], "includesElement__vdw_radius_rt": [164.0, 181.0], "includesElement__evaporation_heat": [10.5, 513.7], "includesElement__fusion_heat": [1.23, 16.11], "includesElement__metallic_radius": [104.0], "includesElement__atomic_weight_uncertainty": [0.0004], "formula": ["N2S1Th2"], "spacegroup": ["164"], "thermalConductivity": [9.21037], "icsd": ["23213"], "band_gap": [1.424], "density": [8.952684], "density_atomic": [19.44398], "deprecated": [false], "efermi": [6.072874], "energy_above_hull": [0.0], "energy_per_atom": [-36.94517], "formation_energy_per_atom": [-2.296564], "is_gap_direct": [false], "is_magnetic": [false], "is_metal": [false], "is_stable": [true], "nelements": [3], "nsites": [5], "num_magnetic_sites": [0], "num_unique_magnetic_sites": [0], "theoretical": [false], "total_magnetization": [0.0], "total_magnetization_normalized_formula_units": [0.0], "total_magnetization_normalized_vol": [0.0], "uncorrected_energy_per_atom": [-36.94517], "volume": [97.2199], "cbm": [7.3384], "equilibrium_reaction_energy_per_atom": [-0.292168], "vbm": [5.9144]}