{"includesElement": ["", "V", "Os"], "includesElement___series_id": [8], "includesElement__abundance_crust": [120.0, 0.0015], "includesElement__atomic_number": [23, 76], "includesElement__atomic_radius": [135.0, 130.0], "includesElement__atomic_radius_rahm": [252.0, 244.0], "includesElement__atomic_volume": [8.35, 8.43], "includesElement__atomic_weight": [50.9415, 190.23], "includesElement__covalent_radius_cordero": [153.0, 144.0], "includesElement__covalent_radius_pyykko": [134.0, 129.0], "includesElement__covalent_radius_pyykko_double": [112.0, 116.0], "includesElement__covalent_radius_pyykko_triple": [106.0, 109.0], "includesElement__density": [6.0, 22.5872], "includesElement__dipole_polarizability": [87.0, 57.0], "includesElement__dipole_polarizability_unc": [10.0, 3.0], "includesElement__discovery_year": [1830, 1804], "includesElement__electron_affinity": [0.525, 1.1], "includesElement__electronegativity_allred-rochow": [0.0001837826, 0.000225347], "includesElement__electronegativity_cottrell-sutton": [0.1569295, 0.1704986], "includesElement__electronegativity_ghosh": [0.1273344, 0.2479845], "includesElement__electronegativity_gordy": [0.02462687, 0.02906977], "includesElement__electronegativity_mulliken": [3.635594, 4.769115], "includesElement__electronegativity_nagle": [0.3859078, 0.5196828], "includesElement__electronegativity_pauling": [1.63, 2.2], "includesElement__electronegativity_sanderson": [0.4388898, 1.239276], "includesElement__en_ghosh": [0.1273344, 0.2479845], "includesElement__en_pauling": [1.63, 2.2], "includesElement__evaporation_heat": [460.0, 738.0], "includesElement__fusion_heat": [17.5, 31.7], "includesElement__glawe_number": [54, 60], "includesElement__group_id": [5, 8], "includesElement__heat_of_formation": [515.5, 787.0], "includesElement__is_radioactive": [false], "includesElement__lattice_constant": [3.02, 2.74], "includesElement__mendeleev_number": [47, 61], "includesElement__molar_heat_capacity": [24.89, 24.7], "includesElement__period": [4, 6], "includesElement__pettifor_number": [54, 62], "includesElement__specific_heat_capacity": [0.489, 0.13], "includesElement__vdw_radius": [207.0, 216.0], "includesElement__vdw_radius_alvarez": [242.0, 248.0], "includesElement__vdw_radius_mm3": [229.0, 235.0], "includesElement__vdw_radius_uff": [314.4, 312.0], "includesElement__abundance_sea": [0.0025], "includesElement__atomic_weight_uncertainty": [0.0001, 0.03], "includesElement__c6_gb": [955.0, 584.0], "includesElement__electronegativity_allen": [9.063, 9.78], "includesElement__en_allen": [9.063, 9.78], "includesElement__metallic_radius": [122.0, 126.0], "includesElement__metallic_radius_c12": [134.0, 135.0], "includesElement__thermal_conductivity": [30.7], "includesElement__vdw_radius_batsanov": [205.0, 200.0], "includesElement__c6": [832.0], "includesElement__gas_basicity": [836.8], "includesElement__proton_affinity": [859.4], "formula": ["Os1V1"], "spacegroup": ["221"], "thermalConductivity": [20.3989], "icsd": ["150935"], "band_gap": [0.0], "density": [14.58926], "density_atomic": [13.72498], "deprecated": [false], "efermi": [8.061206], "energy_above_hull": [0.0], "energy_per_atom": [-33.87408], "formation_energy_per_atom": [-0.3366742], "homogeneous_poisson": [0.312], "is_gap_direct": [false], "is_magnetic": [true], "is_metal": [true], "is_stable": [true], "nelements": [2], "nsites": [2], "num_magnetic_sites": [2], "num_unique_magnetic_sites": [2], "theoretical": [false], "total_magnetization": [0.7966967], "total_magnetization_normalized_formula_units": [0.7966967], "total_magnetization_normalized_vol": [0.0290236], "uncorrected_energy_per_atom": [-33.87408], "universal_anisotropy": [0.194], "volume": [27.44996], "equilibrium_reaction_energy_per_atom": [-0.05742152]}