{"includesElement": ["", "Nb", "Os"], "includesElement___series_id": [8], "includesElement__abundance_crust": [20.0, 0.0015], "includesElement__atomic_number": [41, 76], "includesElement__atomic_radius": [145.0, 130.0], "includesElement__atomic_radius_rahm": [251.0, 244.0], "includesElement__atomic_volume": [10.8, 8.43], "includesElement__atomic_weight": [92.90637, 190.23], "includesElement__covalent_radius_cordero": [164.0, 144.0], "includesElement__covalent_radius_pyykko": [147.0, 129.0], "includesElement__covalent_radius_pyykko_double": [125.0, 116.0], "includesElement__covalent_radius_pyykko_triple": [116.0, 109.0], "includesElement__density": [8.57, 22.5872], "includesElement__dipole_polarizability": [98.0, 57.0], "includesElement__dipole_polarizability_unc": [8.0, 3.0], "includesElement__discovery_year": [1801, 1804], "includesElement__electron_affinity": [0.917406, 1.1], "includesElement__electronegativity_allred-rochow": [0.0001295756, 0.000225347], "includesElement__electronegativity_cottrell-sutton": [0.1380131, 0.1704986], "includesElement__electronegativity_ghosh": [0.1280782, 0.2479845], "includesElement__electronegativity_gordy": [0.01904762, 0.02906977], "includesElement__electronegativity_mulliken": [3.838128, 4.769115], "includesElement__electronegativity_nagle": [0.3708924, 0.5196828], "includesElement__electronegativity_pauling": [1.6, 2.2], "includesElement__electronegativity_sanderson": [0.5561695, 1.239276], "includesElement__en_ghosh": [0.1280782, 0.2479845], "includesElement__en_pauling": [1.6, 2.2], "includesElement__evaporation_heat": [680.0, 738.0], "includesElement__fusion_heat": [26.8, 31.7], "includesElement__glawe_number": [53, 60], "includesElement__group_id": [5, 8], "includesElement__heat_of_formation": [733.0, 787.0], "includesElement__is_radioactive": [false], "includesElement__lattice_constant": [3.3, 2.74], "includesElement__mendeleev_number": [48, 61], "includesElement__molar_heat_capacity": [24.6, 24.7], "includesElement__period": [5, 6], "includesElement__pettifor_number": [52, 62], "includesElement__specific_heat_capacity": [0.265, 0.13], "includesElement__vdw_radius": [218.0, 216.0], "includesElement__vdw_radius_alvarez": [256.0, 248.0], "includesElement__vdw_radius_mm3": [243.0, 235.0], "includesElement__vdw_radius_uff": [316.5, 312.0], "includesElement__abundance_sea": [1e-05], "includesElement__atomic_weight_uncertainty": [2e-05, 0.03], "includesElement__c6_gb": [1140.0, 584.0], "includesElement__electronegativity_allen": [8.34, 9.78], "includesElement__en_allen": [8.34, 9.78], "includesElement__metallic_radius": [134.0, 126.0], "includesElement__metallic_radius_c12": [146.0, 135.0], "includesElement__thermal_conductivity": [53.7], "includesElement__vdw_radius_batsanov": [215.0, 200.0], "includesElement__is_monoisotopic": [true], "formula": ["Nb6Os2"], "spacegroup": ["223"], "thermalConductivity": [9.07991], "icsd": ["105184"], "band_gap": [0.0], "density": [11.26324], "density_atomic": [17.28428], "deprecated": [false], "efermi": [5.562631], "energy_above_hull": [0.0], "energy_per_atom": [-32.07853], "formation_energy_per_atom": [-0.2816715], "homogeneous_poisson": [0.338], "is_gap_direct": [false], "is_magnetic": [false], "is_metal": [true], "is_stable": [true], "nelements": [2], "nsites": [8], "num_magnetic_sites": [0], "num_unique_magnetic_sites": [0], "theoretical": [false], "total_magnetization": [0.0001026], "total_magnetization_normalized_formula_units": [5.13e-05], "total_magnetization_normalized_vol": [7.420037e-07], "uncorrected_energy_per_atom": [-32.07853], "universal_anisotropy": [0.639], "volume": [138.2742], "equilibrium_reaction_energy_per_atom": [-0.1079389]}