{"includesElement": ["", "Be", "B"], "includesElement___series_id": [4, 5], "includesElement__abundance_crust": [2.8, 10.0], "includesElement__atomic_number": [4, 5], "includesElement__atomic_radius": [105.0, 85.0], "includesElement__atomic_radius_rahm": [219.0, 205.0], "includesElement__atomic_volume": [5.0, 4.6], "includesElement__atomic_weight": [9.012183, 10.81], "includesElement__covalent_radius_cordero": [96.0, 84.0], "includesElement__covalent_radius_pyykko": [102.0, 85.0], "includesElement__covalent_radius_pyykko_double": [90.0, 78.0], "includesElement__covalent_radius_pyykko_triple": [85.0, 73.0], "includesElement__density": [1.85, 2.34], "includesElement__dipole_polarizability": [37.74, 20.5], "includesElement__dipole_polarizability_unc": [0.03, 0.1], "includesElement__discovery_year": [1798, 1808], "includesElement__electron_affinity": [-2.4, 0.279723], "includesElement__electronegativity_allred-rochow": [0.0001874279, 0.0003598616], "includesElement__electronegativity_cottrell-sutton": [0.1382666, 0.1748949], "includesElement__electronegativity_ghosh": [0.144986, 0.184886], "includesElement__electronegativity_gordy": [0.01911765, 0.03058824], "includesElement__electronegativity_mulliken": [3.461349, 4.288871], "includesElement__electronegativity_nagle": [0.3756148, 0.5269739], "includesElement__electronegativity_pauling": [1.57, 2.04], "includesElement__electronegativity_sanderson": [0.1268473, 0.2546274], "includesElement__en_ghosh": [0.144986, 0.184886], "includesElement__en_pauling": [1.57, 2.04], "includesElement__evaporation_heat": [309.0, 504.5], "includesElement__fusion_heat": [12.21, 23.6], "includesElement__glawe_number": [77, 86], "includesElement__group_id": [2, 13], "includesElement__heat_of_formation": [324.0, 565.0], "includesElement__is_radioactive": [false], "includesElement__lattice_constant": [2.29, 8.73], "includesElement__mendeleev_number": [75, 81], "includesElement__molar_heat_capacity": [16.443, 11.087], "includesElement__period": [2], "includesElement__pettifor_number": [77, 86], "includesElement__specific_heat_capacity": [1.825, 1.026], "includesElement__vdw_radius": [153.0, 192.0], "includesElement__vdw_radius_alvarez": [198.0, 191.0], "includesElement__vdw_radius_mm3": [223.0, 215.0], "includesElement__vdw_radius_uff": [274.5, 408.3], "includesElement__abundance_sea": [5.6e-06, 4.44], "includesElement__atomic_weight_uncertainty": [5e-07], "includesElement__c6_gb": [214.0, 99.2], "includesElement__covalent_radius_bragg": [115.0], "includesElement__electronegativity_allen": [9.323, 12.13], "includesElement__en_allen": [9.323, 12.13], "includesElement__metallic_radius": [89.0, 80.0], "includesElement__metallic_radius_c12": [112.0, 98.0], "includesElement__thermal_conductivity": [201.0, 27.4], "includesElement__vdw_radius_batsanov": [190.0, 180.0], "includesElement__c6": [227.0, 99.5], "includesElement__is_monoisotopic": [true], "includesElement__vdw_radius_truhlar": [153.0, 192.0], "includesElement__vdw_radius_dreiding": [402.0], "formula": ["B1Be2"], "spacegroup": ["225"], "thermalConductivity": [79.8454], "icsd": ["108027"], "band_gap": [0.0], "density": [2.001774], "density_atomic": [7.973303], "deprecated": [false], "efermi": [4.799976], "energy_above_hull": [0.0546494], "energy_per_atom": [-4.678687], "formation_energy_per_atom": [0.04071845], "homogeneous_poisson": [0.237], "is_gap_direct": [false], "is_magnetic": [false], "is_metal": [true], "is_stable": [false], "nelements": [2], "nsites": [3], "num_magnetic_sites": [0], "num_unique_magnetic_sites": [0], "theoretical": [false], "total_magnetization": [0.0], "total_magnetization_normalized_formula_units": [0.0], "total_magnetization_normalized_vol": [0.0], "uncorrected_energy_per_atom": [-5.287326], "universal_anisotropy": [0.714], "volume": [23.91991]}