{"includesElement": ["", "Sb", "Pt", "Yb"], "includesElement___series_id": [5, 8, 9], "includesElement__abundance_crust": [0.2, 0.005, 3.2], "includesElement__atomic_number": [51, 78, 70], "includesElement__atomic_radius": [145.0, 135.0, 175.0], "includesElement__atomic_radius_rahm": [246.0, 230.0, 277.0], "includesElement__atomic_volume": [18.4, 9.1, 24.8], "includesElement__atomic_weight": [121.76, 195.084, 173.045], "includesElement__covalent_radius_cordero": [139.0, 136.0, 187.0], "includesElement__covalent_radius_pyykko": [140.0, 123.0, 170.0], "includesElement__covalent_radius_pyykko_double": [133.0, 112.0, 129.0], "includesElement__covalent_radius_pyykko_triple": [127.0, 110.0], "includesElement__density": [6.68, 21.5, 6.9], "includesElement__dipole_polarizability": [43.0, 48.0, 139.0], "includesElement__dipole_polarizability_unc": [2.0, 4.0, 6.0], "includesElement__electron_affinity": [1.046, 2.128, -0.02], "includesElement__electronegativity_allred-rochow": [0.0003214286, 0.0002346487, 9.861592e-05], "includesElement__electronegativity_cottrell-sutton": [0.212132, 0.1698876, 0.1294786], "includesElement__electronegativity_ghosh": [0.1918774, 0.25691, 0.22119], "includesElement__electronegativity_gordy": [0.045, 0.02886179, 0.01676471], "includesElement__electronegativity_mulliken": [4.827195, 5.543415, 3.11708], "includesElement__electronegativity_nagle": [0.4880907, 0.5928156, 0.4864465], "includesElement__electronegativity_pauling": [2.05, 2.2], "includesElement__electronegativity_sanderson": [0.7762722, 1.45101, 0.5176678], "includesElement__en_ghosh": [0.1918774, 0.25691, 0.22119], "includesElement__en_pauling": [2.05, 2.2], "includesElement__evaporation_heat": [195.2, 470.0, 159.0], "includesElement__fusion_heat": [20.08, 21.76, 3.35], "includesElement__glawe_number": [91, 64, 18], "includesElement__group_id": [15, 10], "includesElement__heat_of_formation": [264.4, 565.7, 155.6], "includesElement__is_radioactive": [false], "includesElement__lattice_constant": [4.51, 3.92, 5.49], "includesElement__mendeleev_number": [96, 69, 39], "includesElement__molar_heat_capacity": [25.23, 25.86, 26.74], "includesElement__period": [5, 6], "includesElement__pettifor_number": [88, 68, 17], "includesElement__specific_heat_capacity": [0.207, 0.133, 0.155], "includesElement__vdw_radius": [206.0, 213.0, 226.0], "includesElement__vdw_radius_alvarez": [247.0, 229.0, 280.0], "includesElement__vdw_radius_mm3": [252.0, 239.0, 279.0], "includesElement__vdw_radius_uff": [442.0, 275.4, 335.5], "includesElement__abundance_sea": [0.00024, 8.2e-07], "includesElement__atomic_weight_uncertainty": [0.001, 0.009, 0.01], "includesElement__c6_gb": [504.0, 470.0, 1910.0], "includesElement__covalent_radius_bragg": [140.0], "includesElement__electronegativity_allen": [11.74, 10.16], "includesElement__en_allen": [11.74, 10.16], "includesElement__metallic_radius": [139.0, 130.0], "includesElement__metallic_radius_c12": [166.0, 139.0], "includesElement__thermal_conductivity": [24.43, 71.6], "includesElement__vdw_radius_batsanov": [220.0, 205.0], "includesElement__c6": [492.0], "includesElement__vdw_radius_dreiding": [435.0], "includesElement__vdw_radius_truhlar": [206.0], "includesElement__discovery_year": [1735, 1878], "formula": ["Pt1Sb1Yb1"], "spacegroup": ["216"], "thermalConductivity": [1.00753], "icsd": ["77953"], "band_gap": [0.0], "density": [11.16146], "density_atomic": [24.29406], "deprecated": [false], "efermi": [5.047031], "homogeneous_poisson": [0.346], "is_gap_direct": [false], "is_magnetic": [false], "is_metal": [true], "is_stable": [false], "nelements": [3], "nsites": [3], "num_magnetic_sites": [0], "num_unique_magnetic_sites": [0], "theoretical": [false], "total_magnetization": [0.001265], "total_magnetization_normalized_formula_units": [0.001265], "total_magnetization_normalized_vol": [1.735678e-05], "universal_anisotropy": [0.829], "volume": [72.88217]}