{"includesElement": ["Sn", "Zr", "Pt"], "includesElement___series_id": [7, 8], "includesElement__abundance_crust": [2.3, 165.0, 0.005], "includesElement__atomic_number": [50, 40, 78], "includesElement__atomic_radius": [145.0, 155.0, 135.0], "includesElement__atomic_radius_rahm": [248.0, 269.0, 230.0], "includesElement__atomic_volume": [16.3, 14.1, 9.1], "includesElement__atomic_weight": [118.71, 91.224, 195.084], "includesElement__covalent_radius_cordero": [139.0, 175.0, 136.0], "includesElement__covalent_radius_pyykko": [140.0, 154.0, 123.0], "includesElement__covalent_radius_pyykko_double": [130.0, 127.0, 112.0], "includesElement__covalent_radius_pyykko_triple": [132.0, 121.0, 110.0], "includesElement__density": [7.287, 6.52, 21.5], "includesElement__dipole_polarizability": [53.0, 112.0, 48.0], "includesElement__dipole_polarizability_unc": [6.0, 13.0, 4.0], "includesElement__electron_affinity": [1.112067, 0.426, 2.128], "includesElement__electronegativity_allred-rochow": [0.0002882653, 0.0001328217, 0.0002346487], "includesElement__electronegativity_cottrell-sutton": [0.2008909, 0.1430194, 0.1698876], "includesElement__electronegativity_ghosh": [0.178052, 0.1248887, 0.25691], "includesElement__electronegativity_gordy": [0.04035714, 0.02045455, 0.02886179], "includesElement__electronegativity_mulliken": [4.227992, 3.52995, 5.543415], "includesElement__electronegativity_nagle": [0.4225986, 0.3293169, 0.5928156], "includesElement__electronegativity_pauling": [1.96, 1.33, 2.2], "includesElement__electronegativity_sanderson": [0.7622797, 0.4744467, 1.45101], "includesElement__en_ghosh": [0.178052, 0.1248887, 0.25691], "includesElement__en_pauling": [1.96, 1.33, 2.2], "includesElement__evaporation_heat": [296.0, 567.0, 470.0], "includesElement__fusion_heat": [7.07, 19.2, 21.76], "includesElement__glawe_number": [83, 49, 64], "includesElement__group_id": [14, 4, 10], "includesElement__heat_of_formation": [301.2, 610.0, 565.7], "includesElement__is_radioactive": [false], "includesElement__lattice_constant": [5.82, 3.23, 3.92], "includesElement__mendeleev_number": [90, 44, 69], "includesElement__molar_heat_capacity": [26.99, 25.36, 25.86], "includesElement__period": [5, 6], "includesElement__pettifor_number": [83, 49, 68], "includesElement__specific_heat_capacity": [0.227, 0.278, 0.133], "includesElement__vdw_radius": [217.0, 223.0, 213.0], "includesElement__vdw_radius_alvarez": [242.0, 252.0, 229.0], "includesElement__vdw_radius_mm3": [259.0, 254.0, 239.0], "includesElement__vdw_radius_uff": [439.2, 312.4, 275.4], "includesElement__abundance_sea": [4e-06, 3e-05], "includesElement__atomic_weight_uncertainty": [0.007, 0.002, 0.009], "includesElement__c6_gb": [715.0, 1360.0, 470.0], "includesElement__covalent_radius_bragg": [140.0], "includesElement__electronegativity_allen": [10.79, 7.808, 10.16], "includesElement__en_allen": [10.79, 7.808, 10.16], "includesElement__metallic_radius": [142.0, 145.0, 130.0], "includesElement__metallic_radius_c12": [163.0, 160.0, 139.0], "includesElement__thermal_conductivity": [66.8, 22.7, 71.6], "includesElement__vdw_radius_batsanov": [225.0, 230.0, 205.0], "includesElement__c6": [659.0], "includesElement__vdw_radius_dreiding": [447.0], "includesElement__vdw_radius_bondi": [217.0], "includesElement__discovery_year": [1789, 1735], "formula": ["ZrSnPt"], "mp_id": ["961713"], "thermalConductivity": [13.23], "band_gap": [0.9628], "density": [10.35442], "density_atomic": [21.65091], "deprecated": [false], "efermi": [6.323739], "energy_above_hull": [0.0], "energy_per_atom": [-34.16195], "formation_energy_per_atom": [-1.167385], "homogeneous_poisson": [0.296], "is_gap_direct": [false], "is_magnetic": [false], "is_metal": [false], "is_stable": [true], "nelements": [3], "nsites": [3], "num_magnetic_sites": [0], "num_unique_magnetic_sites": [0], "theoretical": [true], "total_magnetization": [0.0], "total_magnetization_normalized_formula_units": [0.0], "total_magnetization_normalized_vol": [0.0], "uncorrected_energy_per_atom": [-34.16195], "universal_anisotropy": [0.086], "volume": [64.95274], "cbm": [7.2012], "e_electronic": [17.47714], "e_ionic": [4.060367], "e_total": [21.5375], "equilibrium_reaction_energy_per_atom": [-0.3296086], "n": [4.180567], "vbm": [6.2384], "e_ij_max": [0.006331151]}