{"includesElement": ["", "Sb", "Pa"], "includesElement___series_id": [5, 10], "includesElement__abundance_crust": [0.2, 1.4e-06], "includesElement__atomic_number": [51, 91], "includesElement__atomic_radius": [145.0, 180.0], "includesElement__atomic_radius_rahm": [246.0, 285.0], "includesElement__atomic_volume": [18.4, 15.0], "includesElement__atomic_weight": [121.76, 231.0359], "includesElement__covalent_radius_cordero": [139.0, 200.0], "includesElement__covalent_radius_pyykko": [140.0, 169.0], "includesElement__covalent_radius_pyykko_double": [133.0, 138.0], "includesElement__covalent_radius_pyykko_triple": [127.0, 129.0], "includesElement__density": [6.68, 15.4], "includesElement__dipole_polarizability": [43.0, 154.0], "includesElement__dipole_polarizability_unc": [2.0, 20.0], "includesElement__electron_affinity": [1.046], "includesElement__electronegativity_allred-rochow": [0.0003214286, 0.0001050383], "includesElement__electronegativity_cottrell-sutton": [0.212132, 0.1332347], "includesElement__electronegativity_ghosh": [0.1918774, 0.12149], "includesElement__electronegativity_gordy": [0.045, 0.01775148], "includesElement__electronegativity_mulliken": [4.827195, 2.945], "includesElement__electronegativity_nagle": [0.4880907, 0.3190189], "includesElement__electronegativity_pauling": [2.05, 1.5], "includesElement__electronegativity_sanderson": [0.7762722, 0.6230657], "includesElement__en_ghosh": [0.1918774, 0.12149], "includesElement__en_pauling": [2.05, 1.5], "includesElement__evaporation_heat": [195.2, 481.2], "includesElement__fusion_heat": [20.08, 16.7], "includesElement__glawe_number": [91, 35], "includesElement__group_id": [15], "includesElement__heat_of_formation": [264.4, 563.0], "includesElement__is_radioactive": [false, true], "includesElement__lattice_constant": [4.51, 3.92], "includesElement__mendeleev_number": [96, 18], "includesElement__molar_heat_capacity": [25.23], "includesElement__period": [5, 7], "includesElement__pettifor_number": [88, 46], "includesElement__specific_heat_capacity": [0.207], "includesElement__vdw_radius": [206.0, 243.0], "includesElement__vdw_radius_alvarez": [247.0, 288.0], "includesElement__vdw_radius_mm3": [252.0, 264.0], "includesElement__vdw_radius_uff": [442.0, 342.4], "includesElement__abundance_sea": [0.00024, 5e-11], "includesElement__atomic_weight_uncertainty": [0.001, 2e-05], "includesElement__c6_gb": [504.0], "includesElement__covalent_radius_bragg": [140.0], "includesElement__electronegativity_allen": [11.74], "includesElement__en_allen": [11.74], "includesElement__metallic_radius": [139.0], "includesElement__metallic_radius_c12": [166.0], "includesElement__thermal_conductivity": [24.43], "includesElement__vdw_radius_batsanov": [220.0], "includesElement__c6": [492.0], "includesElement__vdw_radius_dreiding": [435.0], "includesElement__vdw_radius_truhlar": [206.0], "includesElement__discovery_year": [1917], "includesElement__is_monoisotopic": [true], "formula": ["Pa6Sb8"], "spacegroup": ["220"], "thermalConductivity": [1.8987], "icsd": ["601258"], "band_gap": [0.0], "density": [9.877836], "density_atomic": [28.34168], "deprecated": [false], "efermi": [9.793547], "energy_above_hull": [0.0], "energy_per_atom": [-48.28966], "formation_energy_per_atom": [-0.6620413], "is_gap_direct": [false], "is_magnetic": [true], "is_metal": [true], "is_stable": [true], "nelements": [2], "nsites": [14], "num_magnetic_sites": [6], "num_unique_magnetic_sites": [1], "theoretical": [false], "total_magnetization": [5.999979], "total_magnetization_normalized_formula_units": [2.99999], "total_magnetization_normalized_vol": [0.01512154], "uncorrected_energy_per_atom": [-48.28966], "volume": [396.7835], "equilibrium_reaction_energy_per_atom": [-0.09159511]}