{"includesElement": ["", "Hg", "Te"], "includesElement___series_id": [8, 5], "includesElement__abundance_crust": [0.085, 0.001], "includesElement__atomic_number": [80, 52], "includesElement__atomic_radius": [150.0, 140.0], "includesElement__atomic_radius_rahm": [229.0, 242.0], "includesElement__atomic_volume": [14.8, 20.5], "includesElement__atomic_weight": [200.592, 127.6], "includesElement__covalent_radius_cordero": [132.0, 138.0], "includesElement__covalent_radius_pyykko": [133.0, 136.0], "includesElement__covalent_radius_pyykko_double": [142.0, 128.0], "includesElement__density": [13.5336, 6.232], "includesElement__dipole_polarizability": [33.91, 38.0], "includesElement__dipole_polarizability_unc": [0.34, 4.0], "includesElement__electronegativity_allred-rochow": [0.0002459155, 0.0003757569], "includesElement__electronegativity_cottrell-sutton": [0.1808501, 0.2260596], "includesElement__electronegativity_ghosh": [0.169, 0.2056992], "includesElement__electronegativity_gordy": [0.03270677, 0.05110294], "includesElement__electronegativity_mulliken": [5.218752, 5.490268], "includesElement__electronegativity_nagle": [0.7073231, 0.5404919], "includesElement__electronegativity_pauling": [1.9, 2.1], "includesElement__electronegativity_sanderson": [1.164789, 0.8622506], "includesElement__en_ghosh": [0.169, 0.2056992], "includesElement__en_pauling": [1.9, 2.1], "includesElement__evaporation_heat": [58.5, 49.8], "includesElement__fusion_heat": [2.295, 17.91], "includesElement__glawe_number": [76, 94], "includesElement__group_id": [12, 16], "includesElement__heat_of_formation": [61.38, 196.6], "includesElement__is_radioactive": [false], "includesElement__lattice_constant": [2.99, 4.45], "includesElement__mendeleev_number": [79, 102], "includesElement__molar_heat_capacity": [27.983, 25.73], "includesElement__period": [6, 5], "includesElement__pettifor_number": [74, 92], "includesElement__specific_heat_capacity": [0.14, 0.202], "includesElement__vdw_radius": [223.0, 206.0], "includesElement__vdw_radius_alvarez": [245.0, 199.0], "includesElement__vdw_radius_mm3": [253.0, 244.0], "includesElement__vdw_radius_uff": [270.5, 447.0], "includesElement__abundance_sea": [3e-05], "includesElement__atomic_weight_uncertainty": [0.003, 0.03], "includesElement__c6_gb": [268.0, 471.0], "includesElement__electronegativity_allen": [10.44, 12.76], "includesElement__en_allen": [10.44, 12.76], "includesElement__metallic_radius": [139.0, 137.0], "includesElement__metallic_radius_c12": [151.0, 160.0], "includesElement__thermal_conductivity": [8.3, 14.3], "includesElement__vdw_radius_batsanov": [205.0, 210.0], "includesElement__covalent_radius_pyykko_triple": [121.0], "includesElement__discovery_year": [1782], "includesElement__electron_affinity": [1.970876], "includesElement__covalent_radius_bragg": [133.0], "includesElement__c6": [445.0], "includesElement__vdw_radius_dreiding": [423.0], "includesElement__vdw_radius_bondi": [206.0], "formula": ["Hg1Te1"], "spacegroup": ["225"], "thermalConductivity": [1.0645], "icsd": ["31842"], "band_gap": [0.0], "density": [9.352171], "density_atomic": [29.13614], "deprecated": [false], "efermi": [4.181876], "energy_above_hull": [0.1496713], "energy_per_atom": [-37.43298], "formation_energy_per_atom": [-0.04046528], "homogeneous_poisson": [0.39], "is_gap_direct": [false], "is_magnetic": [false], "is_metal": [true], "is_stable": [false], "nelements": [2], "nsites": [2], "num_magnetic_sites": [0], "num_unique_magnetic_sites": [0], "theoretical": [false], "total_magnetization": [0.0002341], "total_magnetization_normalized_formula_units": [0.0002341], "total_magnetization_normalized_vol": [4.017347e-06], "uncorrected_energy_per_atom": [-1.742282], "universal_anisotropy": [0.185], "volume": [58.27228]}