{"includesElement": ["", "Ir", "In", "Ho"], "includesElement___series_id": [8, 7, 9], "includesElement__abundance_crust": [0.001, 0.25, 1.3], "includesElement__atomic_number": [77, 49, 67], "includesElement__atomic_radius": [135.0, 155.0, 175.0], "includesElement__atomic_radius_rahm": [240.0, 246.0, 273.0], "includesElement__atomic_volume": [8.54, 15.7, 18.7], "includesElement__atomic_weight": [192.217, 114.818, 164.9303], "includesElement__covalent_radius_cordero": [141.0, 142.0, 192.0], "includesElement__covalent_radius_pyykko": [122.0, 142.0, 166.0], "includesElement__covalent_radius_pyykko_double": [115.0, 136.0, 133.0], "includesElement__covalent_radius_pyykko_triple": [107.0, 146.0], "includesElement__density": [22.5622, 7.31, 8.8], "includesElement__dipole_polarizability": [54.0, 65.0, 156.0], "includesElement__dipole_polarizability_unc": [7.0, 4.0, 10.0], "includesElement__discovery_year": [1804, 1863, 1878], "includesElement__electron_affinity": [1.5638, 0.3], "includesElement__electronegativity_allred-rochow": [0.0002620263, 0.0002479667, 0.0001034258], "includesElement__electronegativity_cottrell-sutton": [0.1787938, 0.1876467, 0.1310293], "includesElement__electronegativity_ghosh": [0.25106, 0.16423, 0.207795], "includesElement__electronegativity_gordy": [0.03196721, 0.03521127, 0.01716867], "includesElement__electronegativity_mulliken": [5.26541, 3.043178, 3.01075], "includesElement__electronegativity_nagle": [0.5503212, 0.3587038, 0.4367902], "includesElement__electronegativity_pauling": [2.2, 1.78, 1.23], "includesElement__electronegativity_sanderson": [1.475998, 0.7172747, 0.5434919], "includesElement__en_ghosh": [0.25106, 0.16423, 0.207795], "includesElement__en_pauling": [2.2, 1.78, 1.23], "includesElement__evaporation_heat": [604.0, 225.1, 301.0], "includesElement__fusion_heat": [27.61, 3.24], "includesElement__glawe_number": [62, 80, 23], "includesElement__group_id": [9, 13], "includesElement__heat_of_formation": [669.0, 243.0, 300.6], "includesElement__is_radioactive": [false], "includesElement__lattice_constant": [3.84, 4.59, 3.58], "includesElement__mendeleev_number": [65, 84, 33], "includesElement__molar_heat_capacity": [25.1, 26.74, 27.15], "includesElement__period": [6, 5], "includesElement__pettifor_number": [65, 79, 24], "includesElement__specific_heat_capacity": [0.131, 0.233, 0.165], "includesElement__vdw_radius": [213.0, 193.0, 230.0], "includesElement__vdw_radius_alvarez": [241.0, 243.0, 281.0], "includesElement__vdw_radius_mm3": [236.0, 264.0, 267.0], "includesElement__vdw_radius_uff": [284.0, 446.3, 340.9], "includesElement__atomic_weight_uncertainty": [0.003, 0.001, 2e-05], "includesElement__c6_gb": [522.0, 643.0, 2280.0], "includesElement__electronegativity_allen": [9.96, 9.793], "includesElement__en_allen": [9.96, 9.793], "includesElement__metallic_radius": [127.0, 142.0], "includesElement__metallic_radius_c12": [136.0, 158.0], "includesElement__thermal_conductivity": [147.0, 81.8], "includesElement__vdw_radius_batsanov": [200.0, 220.0], "includesElement__abundance_sea": [0.02, 2.2e-07], "includesElement__c6": [779.0], "includesElement__vdw_radius_dreiding": [459.0], "includesElement__vdw_radius_bondi": [193.0], "includesElement__is_monoisotopic": [true], "formula": ["Ho3In3Ir3"], "spacegroup": ["189"], "thermalConductivity": [1.87356], "icsd": ["414477"], "band_gap": [0.0], "density": [12.45055], "density_atomic": [20.98212], "deprecated": [false], "efermi": [6.54276], "energy_above_hull": [0.0], "energy_per_atom": [-6.100417], "formation_energy_per_atom": [-0.7019878], "homogeneous_poisson": [0.353], "is_gap_direct": [false], "is_magnetic": [false], "is_metal": [true], "is_stable": [true], "nelements": [3], "nsites": [9], "num_magnetic_sites": [0], "num_unique_magnetic_sites": [0], "theoretical": [false], "total_magnetization": [3e-07], "total_magnetization_normalized_formula_units": [1e-07], "total_magnetization_normalized_vol": [1.588654e-09], "uncorrected_energy_per_atom": [-36.77904], "universal_anisotropy": [0.49], "volume": [188.8391], "equilibrium_reaction_energy_per_atom": [-0.05998057]}