{"includesElement": ["", "Ir", "Mo"], "includesElement___series_id": [8], "includesElement__abundance_crust": [0.001, 1.2], "includesElement__atomic_number": [77, 42], "includesElement__atomic_radius": [135.0, 145.0], "includesElement__atomic_radius_rahm": [240.0, 244.0], "includesElement__atomic_volume": [8.54, 9.4], "includesElement__atomic_weight": [192.217, 95.95], "includesElement__covalent_radius_cordero": [141.0, 154.0], "includesElement__covalent_radius_pyykko": [122.0, 138.0], "includesElement__covalent_radius_pyykko_double": [115.0, 121.0], "includesElement__covalent_radius_pyykko_triple": [107.0, 113.0], "includesElement__density": [22.5622, 10.2], "includesElement__dipole_polarizability": [54.0, 87.0], "includesElement__dipole_polarizability_unc": [7.0, 6.0], "includesElement__discovery_year": [1804, 1778], "includesElement__electron_affinity": [1.5638, 0.748], "includesElement__electronegativity_allred-rochow": [0.0002620263, 0.0001549044], "includesElement__electronegativity_cottrell-sutton": [0.1787938, 0.1462081], "includesElement__electronegativity_ghosh": [0.25106, 0.1312672], "includesElement__electronegativity_gordy": [0.03196721, 0.02137681], "includesElement__electronegativity_mulliken": [5.26541, 3.920215], "includesElement__electronegativity_nagle": [0.5503212, 0.4100883], "includesElement__electronegativity_pauling": [2.2, 2.16], "includesElement__electronegativity_sanderson": [1.475998, 0.685295], "includesElement__en_ghosh": [0.25106, 0.1312672], "includesElement__en_pauling": [2.2, 2.16], "includesElement__evaporation_heat": [604.0, 590.0], "includesElement__fusion_heat": [27.61, 28.0], "includesElement__glawe_number": [62, 56], "includesElement__group_id": [9, 6], "includesElement__heat_of_formation": [669.0, 658.98], "includesElement__is_radioactive": [false], "includesElement__lattice_constant": [3.84, 3.15], "includesElement__mendeleev_number": [65, 52], "includesElement__molar_heat_capacity": [25.1, 24.06], "includesElement__period": [6, 5], "includesElement__pettifor_number": [65, 55], "includesElement__specific_heat_capacity": [0.131, 0.251], "includesElement__vdw_radius": [213.0, 217.0], "includesElement__vdw_radius_alvarez": [241.0, 245.0], "includesElement__vdw_radius_mm3": [236.0, 239.0], "includesElement__vdw_radius_uff": [284.0, 305.2], "includesElement__atomic_weight_uncertainty": [0.003, 0.01], "includesElement__c6_gb": [522.0, 1030.0], "includesElement__electronegativity_allen": [9.96, 8.71], "includesElement__en_allen": [9.96, 8.71], "includesElement__metallic_radius": [127.0, 130.0], "includesElement__metallic_radius_c12": [136.0, 139.0], "includesElement__thermal_conductivity": [147.0], "includesElement__vdw_radius_batsanov": [200.0, 210.0], "includesElement__abundance_sea": [0.01], "formula": ["Ir2Mo2"], "spacegroup": ["51"], "thermalConductivity": [20.8517], "icsd": ["104499"], "band_gap": [0.0], "density": [16.17166], "density_atomic": [14.79428], "deprecated": [false], "efermi": [9.007584], "energy_above_hull": [0.0], "energy_per_atom": [-39.56611], "formation_energy_per_atom": [-0.3504414], "homogeneous_poisson": [0.253], "is_gap_direct": [false], "is_magnetic": [false], "is_metal": [true], "is_stable": [true], "nelements": [2], "nsites": [4], "num_magnetic_sites": [0], "num_unique_magnetic_sites": [0], "theoretical": [false], "total_magnetization": [1e-07], "total_magnetization_normalized_formula_units": [5e-08], "total_magnetization_normalized_vol": [1.689842e-09], "uncorrected_energy_per_atom": [-39.56611], "universal_anisotropy": [0.152], "volume": [59.17711], "equilibrium_reaction_energy_per_atom": [-0.1023867]}