{"includesElement": ["", "Ca", "Be", "N"], "includesElement___series_id": [4, 1], "includesElement__abundance_crust": [41500.0, 2.8, 19.0], "includesElement__atomic_number": [20, 4, 7], "includesElement__atomic_radius": [180.0, 105.0, 65.0], "includesElement__atomic_radius_rahm": [270.0, 219.0, 179.0], "includesElement__atomic_volume": [29.9, 5.0, 17.3], "includesElement__atomic_weight": [40.078, 9.012183, 14.007], "includesElement__covalent_radius_cordero": [176.0, 96.0, 71.0], "includesElement__covalent_radius_pyykko": [171.0, 102.0, 71.0], "includesElement__covalent_radius_pyykko_double": [147.0, 90.0, 60.0], "includesElement__covalent_radius_pyykko_triple": [133.0, 85.0, 54.0], "includesElement__density": [1.54, 1.85, 0.001145], "includesElement__dipole_polarizability": [160.8, 37.74, 7.4], "includesElement__dipole_polarizability_unc": [4.0, 0.03, 0.2], "includesElement__discovery_year": [1808, 1798, 1772], "includesElement__electron_affinity": [0.02455, -2.4, -1.4], "includesElement__electronegativity_allred-rochow": [9.746589e-05, 0.0001874279, 0.000773656], "includesElement__electronegativity_cottrell-sutton": [0.1290994, 0.1382666, 0.2343706], "includesElement__electronegativity_ghosh": [0.1154119, 0.144986, 0.26493], "includesElement__electronegativity_gordy": [0.01666667, 0.01911765, 0.05492958], "includesElement__electronegativity_mulliken": [3.068853, 3.461349, 6.567065], "includesElement__electronegativity_nagle": [0.2316939, 0.3756148, 0.8774979], "includesElement__electronegativity_pauling": [1.0, 1.57, 3.04], "includesElement__electronegativity_sanderson": [0.1901577, 0.1268473, 0.577482], "includesElement__en_ghosh": [0.1154119, 0.144986, 0.26493], "includesElement__en_pauling": [1.0, 1.57, 3.04], "includesElement__evaporation_heat": [153.6, 309.0], "includesElement__fusion_heat": [9.2, 12.21], "includesElement__glawe_number": [16, 77, 88], "includesElement__group_id": [2, 15], "includesElement__heat_of_formation": [177.8, 324.0, 472.44], "includesElement__is_radioactive": [false], "includesElement__lattice_constant": [5.58, 2.29, 4.039], "includesElement__mendeleev_number": [7, 75, 93], "includesElement__molar_heat_capacity": [25.929, 16.443, 29.124], "includesElement__period": [4, 2], "includesElement__pettifor_number": [16, 77, 100], "includesElement__specific_heat_capacity": [0.647, 1.825, 1.04], "includesElement__vdw_radius": [231.0, 153.0, 155.0], "includesElement__vdw_radius_alvarez": [262.0, 198.0, 166.0], "includesElement__vdw_radius_mm3": [281.0, 223.0, 193.0], "includesElement__vdw_radius_uff": [339.9, 274.5, 366.0], "includesElement__abundance_sea": [412.0, 5.6e-06, 0.5], "includesElement__atomic_weight_uncertainty": [0.004, 5e-07], "includesElement__c6_gb": [2230.0, 214.0, 25.7], "includesElement__covalent_radius_bragg": [170.0, 115.0, 65.0], "includesElement__electronegativity_allen": [6.113, 9.323, 18.13], "includesElement__en_allen": [6.113, 9.323, 18.13], "includesElement__metallic_radius": [174.0, 89.0], "includesElement__metallic_radius_c12": [197.0, 112.0, 53.0], "includesElement__vdw_radius_batsanov": [240.0, 190.0, 160.0], "includesElement__c6": [2163.0, 227.0, 24.2], "includesElement__vdw_radius_truhlar": [231.0, 153.0], "includesElement__thermal_conductivity": [201.0, 0.026], "includesElement__is_monoisotopic": [true], "includesElement__vdw_radius_dreiding": [366.21], "includesElement__gas_basicity": [318.7], "includesElement__proton_affinity": [342.2], "includesElement__vdw_radius_bondi": [155.0], "includesElement__vdw_radius_rt": [164.0], "formula": ["Be4Ca2N4"], "spacegroup": ["140"], "thermalConductivity": [12.5804], "icsd": ["413357"], "band_gap": [2.0774], "density": [2.705682], "density_atomic": [10.57024], "deprecated": [false], "efermi": [3.216019], "energy_above_hull": [0.0], "energy_per_atom": [-6.480731], "formation_energy_per_atom": [-1.248535], "homogeneous_poisson": [0.265], "is_gap_direct": [false], "is_magnetic": [false], "is_metal": [false], "is_stable": [true], "nelements": [3], "nsites": [10], "num_magnetic_sites": [0], "num_unique_magnetic_sites": [0], "theoretical": [false], "total_magnetization": [0.0], "total_magnetization_normalized_formula_units": [0.0], "total_magnetization_normalized_vol": [0.0], "uncorrected_energy_per_atom": [-8.090466], "universal_anisotropy": [3.84], "volume": [105.7024], "cbm": [5.2891], "e_electronic": [5.306686], "e_ionic": [10.74907], "e_total": [16.05575], "equilibrium_reaction_energy_per_atom": [-0.1260725], "n": [2.303624], "vbm": [3.2117]}