{"includesElement": ["", "Ru", "Pu", "C"], "includesElement___series_id": [8, 10, 1], "includesElement__abundance_crust": [0.001, 200.0], "includesElement__atomic_number": [44, 94, 6], "includesElement__atomic_radius": [130.0, 175.0, 70.0], "includesElement__atomic_radius_rahm": [237.0, 278.0, 190.0], "includesElement__atomic_volume": [8.3, 5.3], "includesElement__atomic_weight": [101.07, 244.0, 12.011], "includesElement__covalent_radius_cordero": [146.0, 187.0, 73.0], "includesElement__covalent_radius_pyykko": [125.0, 172.0, 75.0], "includesElement__covalent_radius_pyykko_double": [114.0, 135.0, 67.0], "includesElement__covalent_radius_pyykko_triple": [103.0, 60.0], "includesElement__density": [12.1, 19.7, 2.2], "includesElement__dipole_polarizability": [72.0, 132.0, 11.3], "includesElement__dipole_polarizability_unc": [10.0, 20.0, 0.2], "includesElement__discovery_year": [1844, 1940], "includesElement__electron_affinity": [1.05, 1.262119], "includesElement__electronegativity_allred-rochow": [0.000208, 9.633586e-05, 0.0005777778], "includesElement__electronegativity_cottrell-sutton": [0.1612452, 0.1287236, 0.2081666], "includesElement__electronegativity_ghosh": [0.1376494, 0.16137, 0.224776], "includesElement__electronegativity_gordy": [0.026, 0.01656977, 0.04333333], "includesElement__electronegativity_mulliken": [4.20525, 3.0129, 6.261208], "includesElement__electronegativity_nagle": [0.4807499, 0.3928005, 0.7073926], "includesElement__electronegativity_pauling": [2.2, 1.3, 2.55], "includesElement__electronegativity_sanderson": [0.9579373, 0.6084717, 0.427525], "includesElement__en_ghosh": [0.1376494, 0.16137, 0.224776], "includesElement__en_pauling": [2.2, 1.3, 2.55], "includesElement__fusion_heat": [25.5, 2.8], "includesElement__glawe_number": [61, 38, 87], "includesElement__group_id": [8, 14], "includesElement__heat_of_formation": [650.6, 345.0, 716.87], "includesElement__is_radioactive": [false, true], "includesElement__lattice_constant": [2.7, 3.57], "includesElement__mendeleev_number": [60, 24, 87], "includesElement__molar_heat_capacity": [24.06, 8.517], "includesElement__period": [5, 7, 2], "includesElement__pettifor_number": [63, 43, 95], "includesElement__specific_heat_capacity": [0.238, 0.709], "includesElement__vdw_radius": [213.0, 243.0, 170.0], "includesElement__vdw_radius_alvarez": [246.0, 281.0, 177.0], "includesElement__vdw_radius_mm3": [234.0, 252.0, 204.0], "includesElement__vdw_radius_uff": [296.3, 342.4, 385.1], "includesElement__abundance_sea": [7e-07, 28.0], "includesElement__atomic_weight_uncertainty": [0.02], "includesElement__c6_gb": [809.0, 47.9], "includesElement__electronegativity_allen": [9.1, 15.05], "includesElement__en_allen": [9.1, 15.05], "includesElement__metallic_radius": [125.0], "includesElement__metallic_radius_c12": [134.0, 86.0], "includesElement__thermal_conductivity": [117.0, 1.59], "includesElement__vdw_radius_batsanov": [205.0, 170.0], "includesElement__gas_basicity": [751.4], "includesElement__proton_affinity": [774.0], "includesElement__evaporation_heat": [343.5], "includesElement__covalent_radius_bragg": [77.0], "includesElement__c6": [46.6], "includesElement__vdw_radius_dreiding": [389.83], "includesElement__vdw_radius_bondi": [170.0], "includesElement__vdw_radius_rt": [177.0], "formula": ["C1Pu1Ru3"], "spacegroup": ["221"], "thermalConductivity": [6.60007], "icsd": ["108183"], "band_gap": [0.0], "density": [12.83303], "density_atomic": [14.47215], "deprecated": [false], "efermi": [10.0704], "energy_above_hull": [0.3289291], "energy_per_atom": [-10.02903], "formation_energy_per_atom": [0.3289291], "is_gap_direct": [false], "is_magnetic": [true], "is_metal": [true], "is_stable": [false], "nelements": [3], "nsites": [5], "num_magnetic_sites": [4], "num_unique_magnetic_sites": [2], "theoretical": [false], "total_magnetization": [0.0877001], "total_magnetization_normalized_formula_units": [0.0877001], "total_magnetization_normalized_vol": [0.001211985], "uncorrected_energy_per_atom": [-10.02903], "volume": [72.36074]}