{"includesElement": ["", "Hf", "Re"], "includesElement___series_id": [8], "includesElement__abundance_crust": [3.0, 0.0007], "includesElement__atomic_number": [72, 75], "includesElement__atomic_radius": [155.0, 135.0], "includesElement__atomic_radius_rahm": [264.0, 249.0], "includesElement__atomic_volume": [13.6, 8.85], "includesElement__atomic_weight": [178.49, 186.207], "includesElement__covalent_radius_cordero": [175.0, 151.0], "includesElement__covalent_radius_pyykko": [152.0, 131.0], "includesElement__covalent_radius_pyykko_double": [128.0, 119.0], "includesElement__covalent_radius_pyykko_triple": [122.0, 110.0], "includesElement__density": [13.3, 20.8], "includesElement__dipole_polarizability": [103.0, 62.0], "includesElement__dipole_polarizability_unc": [6.0, 3.0], "includesElement__discovery_year": [1923, 1925], "includesElement__electron_affinity": [0.014, 0.15], "includesElement__electronegativity_allred-rochow": [0.00013634, 0.000209778], "includesElement__electronegativity_cottrell-sutton": [0.1439572, 0.1657737], "includesElement__electronegativity_ghosh": [0.229987, 0.2435164], "includesElement__electronegativity_gordy": [0.02072368, 0.02748092], "includesElement__electronegativity_mulliken": [3.419535, 3.99176], "includesElement__electronegativity_nagle": [0.3386421, 0.4833208], "includesElement__electronegativity_pauling": [1.3, 1.9], "includesElement__electronegativity_sanderson": [0.7352125, 1.174592], "includesElement__en_ghosh": [0.229987, 0.2435164], "includesElement__en_pauling": [1.3, 1.9], "includesElement__evaporation_heat": [575.0, 704.0], "includesElement__fusion_heat": [25.1, 34.0], "includesElement__glawe_number": [50, 58], "includesElement__group_id": [4, 7], "includesElement__heat_of_formation": [618.4, 774.0], "includesElement__is_radioactive": [false], "includesElement__lattice_constant": [3.2, 2.76], "includesElement__mendeleev_number": [45, 57], "includesElement__molar_heat_capacity": [25.73, 25.48], "includesElement__period": [6], "includesElement__pettifor_number": [50, 59], "includesElement__specific_heat_capacity": [0.144, 0.137], "includesElement__vdw_radius": [223.0, 216.0], "includesElement__vdw_radius_alvarez": [263.0, 249.0], "includesElement__vdw_radius_mm3": [253.0, 237.0], "includesElement__vdw_radius_uff": [314.1, 295.4], "includesElement__abundance_sea": [7e-06, 4e-06], "includesElement__atomic_weight_uncertainty": [0.02, 0.001], "includesElement__c6_gb": [1040.0, 663.0], "includesElement__electronegativity_allen": [6.83, 9.46], "includesElement__en_allen": [6.83, 9.46], "includesElement__metallic_radius": [144.0, 128.0], "includesElement__metallic_radius_c12": [159.0, 137.0], "includesElement__thermal_conductivity": [23.0, 48.0], "includesElement__vdw_radius_batsanov": [225.0, 205.0], "formula": ["Hf4Re8"], "spacegroup": ["194"], "thermalConductivity": [3.24299], "icsd": ["150512"], "band_gap": [0.0], "density": [17.78194], "density_atomic": [17.14844], "deprecated": [false], "efermi": [6.571169], "energy_above_hull": [0.0], "energy_per_atom": [-12.01184], "formation_energy_per_atom": [-0.3940337], "homogeneous_poisson": [0.363], "is_gap_direct": [false], "is_magnetic": [false], "is_metal": [true], "is_stable": [true], "nelements": [2], "nsites": [12], "num_magnetic_sites": [0], "num_unique_magnetic_sites": [0], "theoretical": [false], "total_magnetization": [5.3e-06], "total_magnetization_normalized_formula_units": [1.325e-06], "total_magnetization_normalized_vol": [2.575551e-08], "uncorrected_energy_per_atom": [-50.45459], "universal_anisotropy": [0.025], "volume": [205.7812], "equilibrium_reaction_energy_per_atom": [-0.05023766]}