{"includesElement": ["", "N", "Ti", "Sr"], "includesElement___series_id": [1, 8, 4], "includesElement__abundance_crust": [19.0, 5650.0, 370.0], "includesElement__atomic_number": [7, 22, 38], "includesElement__atomic_radius": [65.0, 140.0, 200.0], "includesElement__atomic_radius_rahm": [179.0, 257.0, 279.0], "includesElement__atomic_volume": [17.3, 10.6, 33.7], "includesElement__atomic_weight": [14.007, 47.867, 87.62], "includesElement__covalent_radius_cordero": [71.0, 160.0, 195.0], "includesElement__covalent_radius_pyykko": [71.0, 136.0, 185.0], "includesElement__covalent_radius_pyykko_double": [60.0, 117.0, 157.0], "includesElement__covalent_radius_pyykko_triple": [54.0, 108.0, 139.0], "includesElement__density": [0.001145, 4.506, 2.64], "includesElement__dipole_polarizability": [7.4, 100.0, 197.2], "includesElement__dipole_polarizability_unc": [0.2, 10.0], "includesElement__discovery_year": [1772, 1791, 1790], "includesElement__electron_affinity": [-1.4, 0.079, 0.048], "includesElement__electronegativity_allred-rochow": [0.000773656, 0.0001703071, 8.327246e-05], "includesElement__electronegativity_cottrell-sutton": [0.2343706, 0.1521899, 0.1241185], "includesElement__electronegativity_ghosh": [0.26493, 0.1233637, 0.1185082], "includesElement__electronegativity_gordy": [0.05492958, 0.02316176, 0.01540541], "includesElement__electronegativity_mulliken": [6.567065, 3.45356, 2.871434], "includesElement__electronegativity_nagle": [0.8774979, 0.3419952, 0.2164584], "includesElement__electronegativity_pauling": [3.04, 1.54, 0.95], "includesElement__electronegativity_sanderson": [0.577482, 0.4055462, 0.2631786], "includesElement__en_ghosh": [0.26493, 0.1233637, 0.1185082], "includesElement__en_pauling": [3.04, 1.54, 0.95], "includesElement__glawe_number": [88, 51, 15], "includesElement__group_id": [15, 4, 2], "includesElement__heat_of_formation": [472.44, 473.0, 164.0], "includesElement__is_radioactive": [false], "includesElement__lattice_constant": [4.039, 2.95, 6.08], "includesElement__mendeleev_number": [93, 43, 8], "includesElement__molar_heat_capacity": [29.124, 25.06, 26.79], "includesElement__period": [2, 4, 5], "includesElement__pettifor_number": [100, 51, 15], "includesElement__specific_heat_capacity": [1.04, 0.523, 0.306], "includesElement__vdw_radius": [155.0, 211.0, 249.0], "includesElement__vdw_radius_alvarez": [166.0, 246.0, 284.0], "includesElement__vdw_radius_mm3": [193.0, 239.0, 300.0], "includesElement__vdw_radius_uff": [366.0, 317.5, 364.1], "includesElement__abundance_sea": [0.5, 0.001, 7.9], "includesElement__c6_gb": [25.7, 1200.0, 3230.0], "includesElement__covalent_radius_bragg": [65.0, 140.0, 195.0], "includesElement__electronegativity_allen": [18.13, 8.17, 5.695], "includesElement__en_allen": [18.13, 8.17, 5.695], "includesElement__metallic_radius_c12": [53.0, 147.0, 215.0], "includesElement__thermal_conductivity": [0.026, 21.9], "includesElement__vdw_radius_batsanov": [160.0, 215.0, 255.0], "includesElement__c6": [24.2, 1044.0, 3175.0], "includesElement__vdw_radius_dreiding": [366.21], "includesElement__gas_basicity": [318.7, 853.7], "includesElement__proton_affinity": [342.2, 876.0], "includesElement__vdw_radius_bondi": [155.0], "includesElement__vdw_radius_rt": [164.0], "includesElement__evaporation_heat": [422.6, 144.0], "includesElement__fusion_heat": [18.8, 9.2], "includesElement__atomic_weight_uncertainty": [0.001, 0.01], "includesElement__metallic_radius": [132.0, 191.0], "includesElement__vdw_radius_truhlar": [249.0], "formula": ["N4Sr2Ti2"], "spacegroup": ["129"], "thermalConductivity": [7.47569], "icsd": ["85770"], "band_gap": [0.7926], "density": [4.659606], "density_atomic": [14.56662], "deprecated": [false], "efermi": [3.882824], "energy_above_hull": [0.0], "energy_per_atom": [-13.19376], "formation_energy_per_atom": [-1.608531], "homogeneous_poisson": [0.305], "is_gap_direct": [true], "is_magnetic": [false], "is_metal": [false], "is_stable": [true], "nelements": [3], "nsites": [8], "num_magnetic_sites": [0], "num_unique_magnetic_sites": [0], "theoretical": [false], "total_magnetization": [0.0], "total_magnetization_normalized_formula_units": [0.0], "total_magnetization_normalized_vol": [0.0], "uncorrected_energy_per_atom": [-13.19376], "universal_anisotropy": [1.999], "volume": [116.5329], "cbm": [4.6064], "e_electronic": [8.737032], "e_ionic": [21.46329], "e_total": [30.20032], "equilibrium_reaction_energy_per_atom": [-0.2235689], "n": [2.955847], "vbm": [3.8138]}