{"includesElement": ["", "Pd", "Pu"], "includesElement___series_id": [8, 10], "includesElement__abundance_crust": [0.015], "includesElement__atomic_number": [46, 94], "includesElement__atomic_radius": [140.0, 175.0], "includesElement__atomic_radius_rahm": [215.0, 278.0], "includesElement__atomic_volume": [8.9], "includesElement__atomic_weight": [106.42, 244.0], "includesElement__covalent_radius_cordero": [139.0, 187.0], "includesElement__covalent_radius_pyykko": [120.0, 172.0], "includesElement__covalent_radius_pyykko_double": [117.0, 135.0], "includesElement__covalent_radius_pyykko_triple": [112.0], "includesElement__density": [12.0, 19.7], "includesElement__dipole_polarizability": [26.14, 132.0], "includesElement__dipole_polarizability_unc": [0.1, 20.0], "includesElement__discovery_year": [1803, 1940], "includesElement__electron_affinity": [0.562], "includesElement__electronegativity_allred-rochow": [0.0004756944, 9.633586e-05], "includesElement__electronegativity_cottrell-sutton": [0.2389212, 0.1287236], "includesElement__electronegativity_ghosh": [0.1440276, 0.16137], "includesElement__electronegativity_gordy": [0.05708333, 0.01656977], "includesElement__electronegativity_mulliken": [4.44943, 3.0129], "includesElement__electronegativity_nagle": [0.7259357, 0.3928005], "includesElement__electronegativity_pauling": [2.2, 1.3], "includesElement__electronegativity_sanderson": [1.124263, 0.6084717], "includesElement__en_ghosh": [0.1440276, 0.16137], "includesElement__en_pauling": [2.2, 1.3], "includesElement__evaporation_heat": [372.4, 343.5], "includesElement__fusion_heat": [17.24, 2.8], "includesElement__glawe_number": [65, 38], "includesElement__group_id": [10], "includesElement__heat_of_formation": [376.6, 345.0], "includesElement__is_radioactive": [false, true], "includesElement__lattice_constant": [3.89], "includesElement__mendeleev_number": [68, 24], "includesElement__molar_heat_capacity": [25.98], "includesElement__period": [5, 7], "includesElement__pettifor_number": [69, 43], "includesElement__specific_heat_capacity": [0.246], "includesElement__vdw_radius": [210.0, 243.0], "includesElement__vdw_radius_alvarez": [215.0, 281.0], "includesElement__vdw_radius_mm3": [237.0, 252.0], "includesElement__vdw_radius_uff": [289.9, 342.4], "includesElement__atomic_weight_uncertainty": [0.01], "includesElement__c6_gb": [628.0], "includesElement__electronegativity_allen": [9.402], "includesElement__en_allen": [9.402], "includesElement__metallic_radius": [128.0], "includesElement__metallic_radius_c12": [137.0], "includesElement__thermal_conductivity": [71.8], "includesElement__vdw_radius_batsanov": [205.0], "includesElement__gas_basicity": [673.4], "includesElement__proton_affinity": [696.0], "formula": ["Pd3Pu1"], "spacegroup": ["221"], "thermalConductivity": [2.3161], "icsd": ["105659"], "band_gap": [0.0], "density": [13.26651], "density_atomic": [17.6255], "deprecated": [false], "efermi": [7.403817], "energy_above_hull": [0.0], "energy_per_atom": [-8.052654], "formation_energy_per_atom": [-0.48326], "is_gap_direct": [false], "is_magnetic": [true], "is_metal": [true], "is_stable": [true], "nelements": [2], "nsites": [4], "num_magnetic_sites": [1], "num_unique_magnetic_sites": [1], "theoretical": [false], "total_magnetization": [4.688828], "total_magnetization_normalized_formula_units": [4.688828], "total_magnetization_normalized_vol": [0.06650632], "uncorrected_energy_per_atom": [-39.5761], "volume": [70.50199], "equilibrium_reaction_energy_per_atom": [-0.48326]}