{"includesElement": ["", "Zr", "W"], "includesElement___series_id": [8], "includesElement__abundance_crust": [165.0, 1.25], "includesElement__atomic_number": [40, 74], "includesElement__atomic_radius": [155.0, 135.0], "includesElement__atomic_radius_rahm": [269.0, 253.0], "includesElement__atomic_volume": [14.1, 9.53], "includesElement__atomic_weight": [91.224, 183.84], "includesElement__covalent_radius_cordero": [175.0, 162.0], "includesElement__covalent_radius_pyykko": [154.0, 137.0], "includesElement__covalent_radius_pyykko_double": [127.0, 120.0], "includesElement__covalent_radius_pyykko_triple": [121.0, 115.0], "includesElement__density": [6.52, 19.3], "includesElement__dipole_polarizability": [112.0, 68.0], "includesElement__dipole_polarizability_unc": [13.0, 15.0], "includesElement__discovery_year": [1789, 1783], "includesElement__electron_affinity": [0.426, 0.81626], "includesElement__electronegativity_allred-rochow": [0.0001328217, 0.0001838137], "includesElement__electronegativity_cottrell-sutton": [0.1430194, 0.1586899], "includesElement__electronegativity_ghosh": [0.1248887, 0.2390504], "includesElement__electronegativity_gordy": [0.02045455, 0.02518248], "includesElement__electronegativity_mulliken": [3.52995, 4.340145], "includesElement__electronegativity_nagle": [0.3293169, 0.4451921], "includesElement__electronegativity_pauling": [1.33, 1.7], "includesElement__electronegativity_sanderson": [0.4744467, 1.019283], "includesElement__en_ghosh": [0.1248887, 0.2390504], "includesElement__en_pauling": [1.33, 1.7], "includesElement__evaporation_heat": [567.0, 824.0], "includesElement__fusion_heat": [19.2, 35.0], "includesElement__glawe_number": [49, 57], "includesElement__group_id": [4, 6], "includesElement__heat_of_formation": [610.0, 851.0], "includesElement__is_radioactive": [false], "includesElement__lattice_constant": [3.23, 3.16], "includesElement__mendeleev_number": [44, 53], "includesElement__molar_heat_capacity": [25.36, 24.27], "includesElement__period": [5, 6], "includesElement__pettifor_number": [49, 56], "includesElement__specific_heat_capacity": [0.278, 0.132], "includesElement__vdw_radius": [223.0, 218.0], "includesElement__vdw_radius_alvarez": [252.0, 257.0], "includesElement__vdw_radius_mm3": [254.0, 239.0], "includesElement__vdw_radius_uff": [312.4, 309.6], "includesElement__abundance_sea": [3e-05, 0.0001], "includesElement__atomic_weight_uncertainty": [0.002, 0.01], "includesElement__c6_gb": [1360.0, 757.0], "includesElement__electronegativity_allen": [7.808, 8.67], "includesElement__en_allen": [7.808, 8.67], "includesElement__metallic_radius": [145.0, 130.0], "includesElement__metallic_radius_c12": [160.0, 139.0], "includesElement__thermal_conductivity": [22.7, 173.0], "includesElement__vdw_radius_batsanov": [230.0, 210.0], "formula": ["W4Zr2"], "spacegroup": ["227"], "thermalConductivity": [11.6196], "icsd": ["106217"], "band_gap": [0.0], "density": [13.67826], "density_atomic": [18.5703], "deprecated": [false], "efermi": [5.390586], "energy_above_hull": [0.0], "energy_per_atom": [-41.96806], "formation_energy_per_atom": [-0.1396011], "homogeneous_poisson": [0.321], "is_gap_direct": [false], "is_magnetic": [false], "is_metal": [true], "is_stable": [true], "nelements": [2], "nsites": [6], "num_magnetic_sites": [0], "num_unique_magnetic_sites": [0], "theoretical": [false], "total_magnetization": [2e-07], "total_magnetization_normalized_formula_units": [1e-07], "total_magnetization_normalized_vol": [1.794981e-09], "uncorrected_energy_per_atom": [-41.96806], "universal_anisotropy": [0.081], "volume": [111.4218], "equilibrium_reaction_energy_per_atom": [-0.1396011]}