{"includesElement": ["", "Sn", "N"], "includesElement___series_id": [7, 1], "includesElement__abundance_crust": [2.3, 19.0], "includesElement__atomic_number": [50, 7], "includesElement__atomic_radius": [145.0, 65.0], "includesElement__atomic_radius_rahm": [248.0, 179.0], "includesElement__atomic_volume": [16.3, 17.3], "includesElement__atomic_weight": [118.71, 14.007], "includesElement__covalent_radius_cordero": [139.0, 71.0], "includesElement__covalent_radius_pyykko": [140.0, 71.0], "includesElement__covalent_radius_pyykko_double": [130.0, 60.0], "includesElement__covalent_radius_pyykko_triple": [132.0, 54.0], "includesElement__density": [7.287, 0.001145], "includesElement__dipole_polarizability": [53.0, 7.4], "includesElement__dipole_polarizability_unc": [6.0, 0.2], "includesElement__electron_affinity": [1.112067, -1.4], "includesElement__electronegativity_allred-rochow": [0.0002882653, 0.000773656], "includesElement__electronegativity_cottrell-sutton": [0.2008909, 0.2343706], "includesElement__electronegativity_ghosh": [0.178052, 0.26493], "includesElement__electronegativity_gordy": [0.04035714, 0.05492958], "includesElement__electronegativity_mulliken": [4.227992, 6.567065], "includesElement__electronegativity_nagle": [0.4225986, 0.8774979], "includesElement__electronegativity_pauling": [1.96, 3.04], "includesElement__electronegativity_sanderson": [0.7622797, 0.577482], "includesElement__en_ghosh": [0.178052, 0.26493], "includesElement__en_pauling": [1.96, 3.04], "includesElement__evaporation_heat": [296.0], "includesElement__fusion_heat": [7.07], "includesElement__glawe_number": [83, 88], "includesElement__group_id": [14, 15], "includesElement__heat_of_formation": [301.2, 472.44], "includesElement__is_radioactive": [false], "includesElement__lattice_constant": [5.82, 4.039], "includesElement__mendeleev_number": [90, 93], "includesElement__molar_heat_capacity": [26.99, 29.124], "includesElement__period": [5, 2], "includesElement__pettifor_number": [83, 100], "includesElement__specific_heat_capacity": [0.227, 1.04], "includesElement__vdw_radius": [217.0, 155.0], "includesElement__vdw_radius_alvarez": [242.0, 166.0], "includesElement__vdw_radius_mm3": [259.0, 193.0], "includesElement__vdw_radius_uff": [439.2, 366.0], "includesElement__abundance_sea": [4e-06, 0.5], "includesElement__atomic_weight_uncertainty": [0.007], "includesElement__c6_gb": [715.0, 25.7], "includesElement__covalent_radius_bragg": [140.0, 65.0], "includesElement__electronegativity_allen": [10.79, 18.13], "includesElement__en_allen": [10.79, 18.13], "includesElement__metallic_radius": [142.0], "includesElement__metallic_radius_c12": [163.0, 53.0], "includesElement__thermal_conductivity": [66.8, 0.026], "includesElement__vdw_radius_batsanov": [225.0, 160.0], "includesElement__c6": [659.0, 24.2], "includesElement__vdw_radius_dreiding": [447.0, 366.21], "includesElement__vdw_radius_bondi": [217.0, 155.0], "includesElement__discovery_year": [1772], "includesElement__gas_basicity": [318.7], "includesElement__proton_affinity": [342.2], "includesElement__vdw_radius_rt": [164.0], "formula": ["N8Sn6"], "spacegroup": ["227"], "thermalConductivity": [3.9528], "icsd": ["89525"], "band_gap": [0.2344], "density": [7.391654], "density_atomic": [13.22732], "deprecated": [false], "efermi": [7.877463], "energy_above_hull": [0.05232797], "energy_per_atom": [-15.76961], "formation_energy_per_atom": [0.05232797], "is_gap_direct": [true], "is_magnetic": [false], "is_metal": [false], "is_stable": [false], "nelements": [2], "nsites": [14], "num_magnetic_sites": [0], "num_unique_magnetic_sites": [0], "theoretical": [false], "total_magnetization": [0.0], "total_magnetization_normalized_formula_units": [0.0], "total_magnetization_normalized_vol": [0.0], "uncorrected_energy_per_atom": [-15.76961], "volume": [185.1825], "cbm": [7.9489], "e_electronic": [9.555843], "e_ionic": [8.822242], "e_total": [18.37808], "n": [3.091253], "vbm": [7.7145]}