{"includesElement": ["", "Ir", "Hf", "B"], "includesElement___series_id": [8, 5], "includesElement__abundance_crust": [0.001, 3.0, 10.0], "includesElement__atomic_number": [77, 72, 5], "includesElement__atomic_radius": [135.0, 155.0, 85.0], "includesElement__atomic_radius_rahm": [240.0, 264.0, 205.0], "includesElement__atomic_volume": [8.54, 13.6, 4.6], "includesElement__atomic_weight": [192.217, 178.49, 10.81], "includesElement__covalent_radius_cordero": [141.0, 175.0, 84.0], "includesElement__covalent_radius_pyykko": [122.0, 152.0, 85.0], "includesElement__covalent_radius_pyykko_double": [115.0, 128.0, 78.0], "includesElement__covalent_radius_pyykko_triple": [107.0, 122.0, 73.0], "includesElement__density": [22.5622, 13.3, 2.34], "includesElement__dipole_polarizability": [54.0, 103.0, 20.5], "includesElement__dipole_polarizability_unc": [7.0, 6.0, 0.1], "includesElement__discovery_year": [1804, 1923, 1808], "includesElement__electron_affinity": [1.5638, 0.014, 0.279723], "includesElement__electronegativity_allred-rochow": [0.0002620263, 0.00013634, 0.0003598616], "includesElement__electronegativity_cottrell-sutton": [0.1787938, 0.1439572, 0.1748949], "includesElement__electronegativity_ghosh": [0.25106, 0.229987, 0.184886], "includesElement__electronegativity_gordy": [0.03196721, 0.02072368, 0.03058824], "includesElement__electronegativity_mulliken": [5.26541, 3.419535, 4.288871], "includesElement__electronegativity_nagle": [0.5503212, 0.3386421, 0.5269739], "includesElement__electronegativity_pauling": [2.2, 1.3, 2.04], "includesElement__electronegativity_sanderson": [1.475998, 0.7352125, 0.2546274], "includesElement__en_ghosh": [0.25106, 0.229987, 0.184886], "includesElement__en_pauling": [2.2, 1.3, 2.04], "includesElement__evaporation_heat": [604.0, 575.0, 504.5], "includesElement__fusion_heat": [27.61, 25.1, 23.6], "includesElement__glawe_number": [62, 50, 86], "includesElement__group_id": [9, 4, 13], "includesElement__heat_of_formation": [669.0, 618.4, 565.0], "includesElement__is_radioactive": [false], "includesElement__lattice_constant": [3.84, 3.2, 8.73], "includesElement__mendeleev_number": [65, 45, 81], "includesElement__molar_heat_capacity": [25.1, 25.73, 11.087], "includesElement__period": [6, 2], "includesElement__pettifor_number": [65, 50, 86], "includesElement__specific_heat_capacity": [0.131, 0.144, 1.026], "includesElement__vdw_radius": [213.0, 223.0, 192.0], "includesElement__vdw_radius_alvarez": [241.0, 263.0, 191.0], "includesElement__vdw_radius_mm3": [236.0, 253.0, 215.0], "includesElement__vdw_radius_uff": [284.0, 314.1, 408.3], "includesElement__atomic_weight_uncertainty": [0.003, 0.02], "includesElement__c6_gb": [522.0, 1040.0, 99.2], "includesElement__electronegativity_allen": [9.96, 6.83, 12.13], "includesElement__en_allen": [9.96, 6.83, 12.13], "includesElement__metallic_radius": [127.0, 144.0, 80.0], "includesElement__metallic_radius_c12": [136.0, 159.0, 98.0], "includesElement__thermal_conductivity": [147.0, 23.0, 27.4], "includesElement__vdw_radius_batsanov": [200.0, 225.0, 180.0], "includesElement__abundance_sea": [7e-06, 4.44], "includesElement__c6": [99.5], "includesElement__vdw_radius_dreiding": [402.0], "includesElement__vdw_radius_truhlar": [192.0], "formula": ["B8Hf2Ir6"], "spacegroup": ["176"], "thermalConductivity": [6.26813], "icsd": ["614432"], "band_gap": [0.0], "density": [15.13186], "density_atomic": [10.95164], "deprecated": [false], "efermi": [9.000302], "energy_above_hull": [0.0], "energy_per_atom": [-8.431245], "formation_energy_per_atom": [-0.5324877], "is_gap_direct": [false], "is_magnetic": [false], "is_metal": [true], "is_stable": [true], "nelements": [3], "nsites": [16], "num_magnetic_sites": [0], "num_unique_magnetic_sites": [0], "theoretical": [false], "total_magnetization": [0.0], "total_magnetization_normalized_formula_units": [0.0], "total_magnetization_normalized_vol": [0.0], "uncorrected_energy_per_atom": [-29.52241], "volume": [175.2263], "equilibrium_reaction_energy_per_atom": [-0.02035138]}