{"includesElement": ["", "Si", "Y", "Ir"], "includesElement___series_id": [5, 8], "includesElement__abundance_crust": [282000.0, 33.0, 0.001], "includesElement__atomic_number": [14, 39, 77], "includesElement__atomic_radius": [110.0, 180.0, 135.0], "includesElement__atomic_radius_rahm": [232.0, 274.0, 240.0], "includesElement__atomic_volume": [12.1, 19.8, 8.54], "includesElement__atomic_weight": [28.085, 88.90584, 192.217], "includesElement__covalent_radius_cordero": [111.0, 190.0, 141.0], "includesElement__covalent_radius_pyykko": [116.0, 163.0, 122.0], "includesElement__covalent_radius_pyykko_double": [107.0, 130.0, 115.0], "includesElement__covalent_radius_pyykko_triple": [102.0, 124.0, 107.0], "includesElement__density": [2.3296, 4.47, 22.5622], "includesElement__dipole_polarizability": [37.3, 162.0, 54.0], "includesElement__dipole_polarizability_unc": [0.7, 12.0, 7.0], "includesElement__discovery_year": [1824, 1789, 1804], "includesElement__electron_affinity": [1.389521, 0.307, 1.5638], "includesElement__electronegativity_allred-rochow": [0.0003084126, 0.0001129135, 0.0002620263], "includesElement__electronegativity_cottrell-sutton": [0.1891451, 0.1356647, 0.1787938], "includesElement__electronegativity_ghosh": [0.178503, 0.1216986, 0.25106], "includesElement__electronegativity_gordy": [0.03577586, 0.01840491, 0.03196721], "includesElement__electronegativity_mulliken": [4.770602, 3.26213, 5.26541], "includesElement__electronegativity_nagle": [0.4750986, 0.2645668, 0.5503212], "includesElement__electronegativity_pauling": [1.9, 1.22, 2.2], "includesElement__electronegativity_sanderson": [0.3468158, 0.3923941, 1.475998], "includesElement__en_ghosh": [0.178503, 0.1216986, 0.25106], "includesElement__en_pauling": [1.9, 1.22, 2.2], "includesElement__evaporation_heat": [383.0, 367.0, 604.0], "includesElement__fusion_heat": [50.6, 11.5, 27.61], "includesElement__glawe_number": [85, 21, 62], "includesElement__group_id": [14, 3, 9], "includesElement__heat_of_formation": [450.0, 424.7, 669.0], "includesElement__is_radioactive": [false], "includesElement__lattice_constant": [5.43, 3.65, 3.84], "includesElement__mendeleev_number": [88, 12, 65], "includesElement__molar_heat_capacity": [19.99, 26.53, 25.1], "includesElement__period": [3, 5, 6], "includesElement__pettifor_number": [85, 19, 65], "includesElement__specific_heat_capacity": [0.712, 0.298, 0.131], "includesElement__vdw_radius": [210.0, 232.0, 213.0], "includesElement__vdw_radius_alvarez": [219.0, 275.0, 241.0], "includesElement__vdw_radius_mm3": [229.0, 271.0, 236.0], "includesElement__vdw_radius_uff": [429.5, 334.5, 284.0], "includesElement__abundance_sea": [2.2, 1.3e-05], "includesElement__c6_gb": [308.0, 2600.0, 522.0], "includesElement__covalent_radius_bragg": [117.0], "includesElement__electronegativity_allen": [11.33, 6.631, 9.96], "includesElement__en_allen": [11.33, 6.631, 9.96], "includesElement__metallic_radius": [117.0, 162.0, 127.0], "includesElement__metallic_radius_c12": [138.0, 180.0, 136.0], "includesElement__thermal_conductivity": [149.0, 147.0], "includesElement__vdw_radius_batsanov": [210.0, 240.0, 200.0], "includesElement__c6": [305.0], "includesElement__vdw_radius_dreiding": [427.0], "includesElement__gas_basicity": [814.1, 945.9], "includesElement__proton_affinity": [837.0, 967.0], "includesElement__vdw_radius_bondi": [210.0], "includesElement__atomic_weight_uncertainty": [2e-05, 0.003], "includesElement__is_monoisotopic": [true], "formula": ["Ir2Si2Y1"], "spacegroup": ["139"], "thermalConductivity": [15.3048], "icsd": ["181768"], "band_gap": [0.0], "density": [10.70539], "density_atomic": [16.42674], "deprecated": [false], "efermi": [8.258385], "energy_above_hull": [0.0], "energy_per_atom": [-8.092275], "formation_energy_per_atom": [-1.084956], "homogeneous_poisson": [0.25], "is_gap_direct": [false], "is_magnetic": [false], "is_metal": [true], "is_stable": [true], "nelements": [3], "nsites": [5], "num_magnetic_sites": [0], "num_unique_magnetic_sites": [0], "theoretical": [false], "total_magnetization": [4.9e-06], "total_magnetization_normalized_formula_units": [4.9e-06], "total_magnetization_normalized_vol": [5.965882e-08], "uncorrected_energy_per_atom": [-29.70245], "universal_anisotropy": [0.139], "volume": [82.13371], "equilibrium_reaction_energy_per_atom": [-0.1490004]}