{"includesElement": ["", "Ga", "Cu", "Sc"], "includesElement___series_id": [7, 8], "includesElement__abundance_crust": [19.0, 60.0, 22.0], "includesElement__atomic_number": [31, 29, 21], "includesElement__atomic_radius": [130.0, 135.0, 160.0], "includesElement__atomic_radius_rahm": [233.0, 217.0, 263.0], "includesElement__atomic_volume": [11.8, 7.1, 15.0], "includesElement__atomic_weight": [69.723, 63.546, 44.95591], "includesElement__covalent_radius_cordero": [122.0, 132.0, 170.0], "includesElement__covalent_radius_pyykko": [124.0, 112.0, 148.0], "includesElement__covalent_radius_pyykko_double": [117.0, 115.0, 116.0], "includesElement__covalent_radius_pyykko_triple": [121.0, 120.0, 114.0], "includesElement__density": [5.91, 8.96, 2.99], "includesElement__dipole_polarizability": [50.0, 46.5, 97.0], "includesElement__dipole_polarizability_unc": [3.0, 0.5, 10.0], "includesElement__discovery_year": [1875, 1879], "includesElement__electron_affinity": [0.43, 1.235, 0.188], "includesElement__electronegativity_allred-rochow": [0.0003251821, 0.0002949617, 0.0001369613], "includesElement__electronegativity_cottrell-sutton": [0.2008048, 0.1817573, 0.1423737], "includesElement__electronegativity_ghosh": [0.1723773, 0.1511716, 0.1193833], "includesElement__electronegativity_gordy": [0.04032258, 0.03303571, 0.02027027], "includesElement__electronegativity_mulliken": [3.214651, 4.48069, 3.374745], "includesElement__electronegativity_nagle": [0.3914868, 0.6184623, 0.3138941], "includesElement__electronegativity_pauling": [1.81, 1.9, 1.36], "includesElement__electronegativity_sanderson": [0.720541, 0.9175542, 0.3038674], "includesElement__en_ghosh": [0.1723773, 0.1511716, 0.1193833], "includesElement__en_pauling": [1.81, 1.9, 1.36], "includesElement__evaporation_heat": [270.3, 304.6, 332.7], "includesElement__fusion_heat": [5.59, 13.01, 15.8], "includesElement__glawe_number": [79, 68, 48], "includesElement__group_id": [13, 11, 3], "includesElement__heat_of_formation": [271.96, 337.4, 377.8], "includesElement__is_radioactive": [false], "includesElement__lattice_constant": [4.51, 3.61, 3.31], "includesElement__mendeleev_number": [83, 71, 11], "includesElement__molar_heat_capacity": [26.03, 24.44, 25.52], "includesElement__period": [4], "includesElement__pettifor_number": [81, 72, 20], "includesElement__specific_heat_capacity": [0.373, 0.385, 0.568], "includesElement__vdw_radius": [187.0, 196.0, 215.0], "includesElement__vdw_radius_alvarez": [232.0, 238.0, 258.0], "includesElement__vdw_radius_mm3": [246.0, 226.0, 261.0], "includesElement__vdw_radius_uff": [438.3, 349.5, 329.5], "includesElement__abundance_sea": [3e-05, 0.00025, 6e-07], "includesElement__atomic_weight_uncertainty": [0.001, 0.003, 5e-06], "includesElement__c6_gb": [456.0, 264.0, 1570.0], "includesElement__electronegativity_allen": [10.39, 10.96, 7.042], "includesElement__en_allen": [10.39, 10.96, 7.042], "includesElement__metallic_radius": [125.0, 118.0, 144.0], "includesElement__metallic_radius_c12": [140.0, 128.0, 162.0], "includesElement__thermal_conductivity": [28.1, 401.0, 15.8], "includesElement__vdw_radius_batsanov": [210.0, 200.0, 230.0], "includesElement__c6": [498.0, 253.0, 1383.0], "includesElement__vdw_radius_dreiding": [439.0], "includesElement__vdw_radius_bondi": [187.0], "includesElement__covalent_radius_bragg": [137.0], "includesElement__gas_basicity": [632.4, 892.0], "includesElement__proton_affinity": [655.3, 914.0], "includesElement__is_monoisotopic": [true], "formula": ["Cu2Ga1Sc1"], "spacegroup": ["225"], "thermalConductivity": [2.76616], "icsd": ["102930"], "band_gap": [0.0], "density": [6.960065], "density_atomic": [14.42049], "deprecated": [false], "efermi": [5.575979], "energy_above_hull": [0.0], "energy_per_atom": [-11.52849], "formation_energy_per_atom": [-0.3947751], "homogeneous_poisson": [0.31], "is_gap_direct": [false], "is_magnetic": [false], "is_metal": [true], "is_stable": [true], "nelements": [3], "nsites": [4], "num_magnetic_sites": [0], "num_unique_magnetic_sites": [0], "theoretical": [false], "total_magnetization": [2.7e-06], "total_magnetization_normalized_formula_units": [2.7e-06], "total_magnetization_normalized_vol": [4.680841e-08], "uncorrected_energy_per_atom": [-11.52849], "universal_anisotropy": [0.982], "volume": [57.68194], "equilibrium_reaction_energy_per_atom": [-0.003294405]}