{"includesElement": ["", "Ca", "O", "Pt"], "includesElement___series_id": [4, 1, 8], "includesElement__abundance_crust": [41500.0, 461000.0, 0.005], "includesElement__atomic_number": [20, 8, 78], "includesElement__atomic_radius": [180.0, 60.0, 135.0], "includesElement__atomic_radius_rahm": [270.0, 171.0, 230.0], "includesElement__atomic_volume": [29.9, 14.0, 9.1], "includesElement__atomic_weight": [40.078, 15.999, 195.084], "includesElement__covalent_radius_cordero": [176.0, 66.0, 136.0], "includesElement__covalent_radius_pyykko": [171.0, 63.0, 123.0], "includesElement__covalent_radius_pyykko_double": [147.0, 57.0, 112.0], "includesElement__covalent_radius_pyykko_triple": [133.0, 53.0, 110.0], "includesElement__density": [1.54, 0.001308, 21.5], "includesElement__dipole_polarizability": [160.8, 5.3, 48.0], "includesElement__dipole_polarizability_unc": [4.0, 0.2], "includesElement__discovery_year": [1808, 1774, 1735], "includesElement__electron_affinity": [0.02455, 1.461113, 2.128], "includesElement__electronegativity_allred-rochow": [9.746589e-05, 0.001146384, 0.0002346487], "includesElement__electronegativity_cottrell-sutton": [0.1290994, 0.2687419, 0.1698876], "includesElement__electronegativity_ghosh": [0.1154119, 0.304575, 0.25691], "includesElement__electronegativity_gordy": [0.01666667, 0.07222222, 0.02886179], "includesElement__electronegativity_mulliken": [3.068853, 7.539584, 5.543415], "includesElement__electronegativity_nagle": [0.2316939, 1.042218, 0.5928156], "includesElement__electronegativity_pauling": [1.0, 3.44, 2.2], "includesElement__electronegativity_sanderson": [0.1901577, 0.9416494, 1.45101], "includesElement__en_ghosh": [0.1154119, 0.304575, 0.25691], "includesElement__en_pauling": [1.0, 3.44, 2.2], "includesElement__evaporation_heat": [153.6, 470.0], "includesElement__fusion_heat": [9.2, 21.76], "includesElement__glawe_number": [16, 97, 64], "includesElement__group_id": [2, 16, 10], "includesElement__heat_of_formation": [177.8, 249.229, 565.7], "includesElement__is_radioactive": [false], "includesElement__lattice_constant": [5.58, 6.83, 3.92], "includesElement__mendeleev_number": [7, 99, 69], "includesElement__molar_heat_capacity": [25.929, 29.378, 25.86], "includesElement__period": [4, 2, 6], "includesElement__pettifor_number": [16, 101, 68], "includesElement__specific_heat_capacity": [0.647, 0.918, 0.133], "includesElement__vdw_radius": [231.0, 152.0, 213.0], "includesElement__vdw_radius_alvarez": [262.0, 150.0, 229.0], "includesElement__vdw_radius_mm3": [281.0, 182.0, 239.0], "includesElement__vdw_radius_uff": [339.9, 350.0, 275.4], "includesElement__abundance_sea": [412.0, 857000.0], "includesElement__atomic_weight_uncertainty": [0.004, 0.009], "includesElement__c6_gb": [2230.0, 16.7, 470.0], "includesElement__covalent_radius_bragg": [170.0, 65.0], "includesElement__electronegativity_allen": [6.113, 21.36, 10.16], "includesElement__en_allen": [6.113, 21.36, 10.16], "includesElement__metallic_radius": [174.0, 130.0], "includesElement__metallic_radius_c12": [197.0, 139.0], "includesElement__vdw_radius_batsanov": [240.0, 155.0, 205.0], "includesElement__c6": [2163.0, 15.6], "includesElement__vdw_radius_truhlar": [231.0], "includesElement__thermal_conductivity": [0.027, 71.6], "includesElement__vdw_radius_dreiding": [340.46], "includesElement__gas_basicity": [459.6], "includesElement__proton_affinity": [485.2], "includesElement__vdw_radius_bondi": [152.0], "includesElement__vdw_radius_rt": [158.0], "formula": ["Ca2O6Pt2"], "spacegroup": ["63"], "thermalConductivity": [5.58614], "icsd": ["160328"], "band_gap": [1.2953], "density": [8.181467], "density_atomic": [11.49424], "deprecated": [false], "efermi": [4.370779], "energy_above_hull": [0.0], "energy_per_atom": [-17.08368], "formation_energy_per_atom": [-1.802086], "homogeneous_poisson": [0.299], "is_gap_direct": [false], "is_magnetic": [false], "is_metal": [false], "is_stable": [true], "nelements": [3], "nsites": [10], "num_magnetic_sites": [0], "num_unique_magnetic_sites": [0], "theoretical": [false], "total_magnetization": [0.0], "total_magnetization_normalized_formula_units": [0.0], "total_magnetization_normalized_vol": [0.0], "uncorrected_energy_per_atom": [-17.08368], "universal_anisotropy": [0.738], "volume": [114.9424], "cbm": [5.5217], "e_electronic": [7.308618], "e_ionic": [6.735487], "e_total": [14.04411], "equilibrium_reaction_energy_per_atom": [-0.02363503], "n": [2.703446], "vbm": [4.2264]}