{"includesElement": ["", "N", "Nb", "Cr"], "includesElement___series_id": [1, 8], "includesElement__abundance_crust": [19.0, 20.0, 102.0], "includesElement__atomic_number": [7, 41, 24], "includesElement__atomic_radius": [65.0, 145.0, 140.0], "includesElement__atomic_radius_rahm": [179.0, 251.0, 233.0], "includesElement__atomic_volume": [17.3, 10.8, 7.23], "includesElement__atomic_weight": [14.007, 92.90637, 51.9961], "includesElement__covalent_radius_cordero": [71.0, 164.0, 139.0], "includesElement__covalent_radius_pyykko": [71.0, 147.0, 122.0], "includesElement__covalent_radius_pyykko_double": [60.0, 125.0, 111.0], "includesElement__covalent_radius_pyykko_triple": [54.0, 116.0, 103.0], "includesElement__density": [0.001145, 8.57, 7.15], "includesElement__dipole_polarizability": [7.4, 98.0, 83.0], "includesElement__dipole_polarizability_unc": [0.2, 8.0, 12.0], "includesElement__discovery_year": [1772, 1801, 1797], "includesElement__electron_affinity": [-1.4, 0.917406, 0.666], "includesElement__electronegativity_allred-rochow": [0.000773656, 0.0001295756, 0.0001981994], "includesElement__electronegativity_cottrell-sutton": [0.2343706, 0.1380131, 0.1555003], "includesElement__electronegativity_ghosh": [0.26493, 0.1280782, 0.1313053], "includesElement__electronegativity_gordy": [0.05492958, 0.01904762, 0.02418033], "includesElement__electronegativity_mulliken": [6.567065, 3.838128, 3.716255], "includesElement__electronegativity_nagle": [0.8774979, 0.3708924, 0.4165729], "includesElement__electronegativity_pauling": [3.04, 1.6, 1.66], "includesElement__electronegativity_sanderson": [0.577482, 0.5561695, 0.6017723], "includesElement__en_ghosh": [0.26493, 0.1280782, 0.1313053], "includesElement__en_pauling": [3.04, 1.6, 1.66], "includesElement__glawe_number": [88, 53, 55], "includesElement__group_id": [15, 5, 6], "includesElement__heat_of_formation": [472.44, 733.0, 397.48], "includesElement__is_radioactive": [false], "includesElement__lattice_constant": [4.039, 3.3, 2.88], "includesElement__mendeleev_number": [93, 48, 51], "includesElement__molar_heat_capacity": [29.124, 24.6, 23.35], "includesElement__period": [2, 5, 4], "includesElement__pettifor_number": [100, 52, 57], "includesElement__specific_heat_capacity": [1.04, 0.265, 0.449], "includesElement__vdw_radius": [155.0, 218.0, 206.0], "includesElement__vdw_radius_alvarez": [166.0, 256.0, 245.0], "includesElement__vdw_radius_mm3": [193.0, 243.0, 225.0], "includesElement__vdw_radius_uff": [366.0, 316.5, 302.3], "includesElement__abundance_sea": [0.5, 1e-05, 0.0003], "includesElement__c6_gb": [25.7, 1140.0, 709.0], "includesElement__covalent_radius_bragg": [65.0, 140.0], "includesElement__electronegativity_allen": [18.13, 8.34, 9.77], "includesElement__en_allen": [18.13, 8.34, 9.77], "includesElement__metallic_radius_c12": [53.0, 146.0, 128.0], "includesElement__thermal_conductivity": [0.026, 53.7, 93.9], "includesElement__vdw_radius_batsanov": [160.0, 215.0, 205.0], "includesElement__c6": [24.2, 602.0], "includesElement__vdw_radius_dreiding": [366.21], "includesElement__gas_basicity": [318.7, 768.4], "includesElement__proton_affinity": [342.2, 791.3], "includesElement__vdw_radius_bondi": [155.0], "includesElement__vdw_radius_rt": [164.0], "includesElement__evaporation_heat": [680.0, 342.0], "includesElement__fusion_heat": [26.8, 21.0], "includesElement__atomic_weight_uncertainty": [2e-05, 0.0006], "includesElement__metallic_radius": [134.0, 119.0], "includesElement__is_monoisotopic": [true], "formula": ["Cr2N2Nb2"], "spacegroup": ["129"], "thermalConductivity": [26.4276], "icsd": ["23779"], "band_gap": [0.0], "density": [7.783998], "density_atomic": [11.29989], "deprecated": [false], "efermi": [7.155112], "energy_above_hull": [0.104374], "energy_per_atom": [-17.03888], "formation_energy_per_atom": [-0.7268201], "homogeneous_poisson": [0.262], "is_gap_direct": [false], "is_magnetic": [false], "is_metal": [true], "is_stable": [false], "nelements": [3], "nsites": [6], "num_magnetic_sites": [0], "num_unique_magnetic_sites": [0], "theoretical": [false], "total_magnetization": [0.0], "total_magnetization_normalized_formula_units": [0.0], "total_magnetization_normalized_vol": [0.0], "uncorrected_energy_per_atom": [-17.03888], "universal_anisotropy": [0.532], "volume": [67.79933]}