{"includesElement": ["", "Bi", "Co", "Hf"], "includesElement___series_id": [7, 8], "includesElement__abundance_crust": [0.0085, 25.0, 3.0], "includesElement__atomic_number": [83, 27, 72], "includesElement__atomic_radius": [160.0, 135.0, 155.0], "includesElement__atomic_radius_rahm": [250.0, 233.0, 264.0], "includesElement__atomic_volume": [21.3, 6.7, 13.6], "includesElement__atomic_weight": [208.9804, 58.93319, 178.49], "includesElement__covalent_radius_cordero": [148.0, 138.0, 175.0], "includesElement__covalent_radius_pyykko": [151.0, 111.0, 152.0], "includesElement__covalent_radius_pyykko_double": [141.0, 103.0, 128.0], "includesElement__covalent_radius_pyykko_triple": [135.0, 96.0, 122.0], "includesElement__density": [9.79, 8.86, 13.3], "includesElement__dipole_polarizability": [48.0, 55.0, 103.0], "includesElement__dipole_polarizability_unc": [4.0, 6.0], "includesElement__electron_affinity": [0.942362, 0.6622565, 0.014], "includesElement__electronegativity_allred-rochow": [0.0002763037, 0.0003165327, 0.00013634], "includesElement__electronegativity_cottrell-sutton": [0.2042593, 0.1874437, 0.1439572], "includesElement__electronegativity_ghosh": [0.182377, 0.1432363, 0.229987], "includesElement__electronegativity_gordy": [0.04172185, 0.03513514, 0.02072368], "includesElement__electronegativity_mulliken": [4.113939, 4.271633, 3.419535], "includesElement__electronegativity_nagle": [0.470518, 0.5469655, 0.3386421], "includesElement__electronegativity_pauling": [1.9, 1.88, 1.3], "includesElement__electronegativity_sanderson": [0.8136501, 0.8832424, 0.7352125], "includesElement__en_ghosh": [0.182377, 0.1432363, 0.229987], "includesElement__en_pauling": [1.9, 1.88, 1.3], "includesElement__evaporation_heat": [172.0, 389.1, 575.0], "includesElement__fusion_heat": [11.0, 15.48, 25.1], "includesElement__glawe_number": [92, 70, 50], "includesElement__group_id": [15, 9, 4], "includesElement__heat_of_formation": [209.6, 426.7, 618.4], "includesElement__is_radioactive": [false], "includesElement__lattice_constant": [4.75, 2.51, 3.2], "includesElement__mendeleev_number": [97, 63, 45], "includesElement__molar_heat_capacity": [25.52, 24.81, 25.73], "includesElement__period": [6, 4], "includesElement__pettifor_number": [87, 64, 50], "includesElement__specific_heat_capacity": [0.122, 0.421, 0.144], "includesElement__vdw_radius": [207.0, 200.0, 223.0], "includesElement__vdw_radius_alvarez": [254.0, 240.0, 263.0], "includesElement__vdw_radius_mm3": [266.0, 223.0, 253.0], "includesElement__vdw_radius_uff": [437.0, 287.2, 314.1], "includesElement__abundance_sea": [2e-05, 7e-06], "includesElement__atomic_weight_uncertainty": [1e-05, 4e-06, 0.02], "includesElement__c6_gb": [513.0, 461.0, 1040.0], "includesElement__covalent_radius_bragg": [148.0, 137.0], "includesElement__electronegativity_allen": [11.9, 10.86, 6.83], "includesElement__en_allen": [11.9, 10.86, 6.83], "includesElement__metallic_radius": [151.0, 116.0, 144.0], "includesElement__metallic_radius_c12": [178.0, 125.0, 159.0], "includesElement__thermal_conductivity": [7.9, 100.0, 23.0], "includesElement__vdw_radius_batsanov": [230.0, 200.0, 225.0], "includesElement__is_monoisotopic": [true], "includesElement__vdw_radius_truhlar": [207.0], "includesElement__discovery_year": [1739, 1923], "includesElement__c6": [408.0], "includesElement__gas_basicity": [719.8], "includesElement__proton_affinity": [742.7], "formula": ["Bi2Co1Hf6"], "spacegroup": ["189"], "thermalConductivity": [5.21133], "icsd": ["54566"], "band_gap": [0.0], "density": [13.48832], "density_atomic": [21.17254], "deprecated": [false], "efermi": [6.15901], "energy_above_hull": [0.0], "energy_per_atom": [-8.542668], "formation_energy_per_atom": [-0.2584986], "homogeneous_poisson": [0.265], "is_gap_direct": [false], "is_magnetic": [false], "is_metal": [true], "is_stable": [true], "nelements": [3], "nsites": [9], "num_magnetic_sites": [0], "num_unique_magnetic_sites": [0], "theoretical": [false], "total_magnetization": [4.1e-06], "total_magnetization_normalized_formula_units": [4.1e-06], "total_magnetization_normalized_vol": [2.151633e-08], "uncorrected_energy_per_atom": [-44.8308], "universal_anisotropy": [0.201], "volume": [190.5529], "equilibrium_reaction_energy_per_atom": [-0.05044543]}