{"includesElement": ["", "Ag", "O", "Sc"], "includesElement___series_id": [8, 1], "includesElement__abundance_crust": [0.075, 461000.0, 22.0], "includesElement__atomic_number": [47, 8, 21], "includesElement__atomic_radius": [160.0, 60.0], "includesElement__atomic_radius_rahm": [225.0, 171.0, 263.0], "includesElement__atomic_volume": [10.3, 14.0, 15.0], "includesElement__atomic_weight": [107.8682, 15.999, 44.95591], "includesElement__covalent_radius_cordero": [145.0, 66.0, 170.0], "includesElement__covalent_radius_pyykko": [128.0, 63.0, 148.0], "includesElement__covalent_radius_pyykko_double": [139.0, 57.0, 116.0], "includesElement__covalent_radius_pyykko_triple": [137.0, 53.0, 114.0], "includesElement__density": [10.5, 0.001308, 2.99], "includesElement__dipole_polarizability": [55.0, 5.3, 97.0], "includesElement__dipole_polarizability_unc": [8.0, 0.2, 10.0], "includesElement__electron_affinity": [1.302, 1.461113, 0.188], "includesElement__electronegativity_allred-rochow": [0.0002258301, 0.001146384, 0.0001369613], "includesElement__electronegativity_cottrell-sutton": [0.1700184, 0.2687419, 0.1423737], "includesElement__electronegativity_ghosh": [0.1472165, 0.304575, 0.1193833], "includesElement__electronegativity_gordy": [0.02890625, 0.07222222, 0.02027027], "includesElement__electronegativity_mulliken": [4.439117, 7.539584, 3.374745], "includesElement__electronegativity_nagle": [0.5848035, 1.042218, 0.3138941], "includesElement__electronegativity_pauling": [1.93, 3.44, 1.36], "includesElement__electronegativity_sanderson": [0.9437955, 0.9416494, 0.3038674], "includesElement__en_ghosh": [0.1472165, 0.304575, 0.1193833], "includesElement__en_pauling": [1.93, 3.44, 1.36], "includesElement__evaporation_heat": [254.1, 332.7], "includesElement__fusion_heat": [11.95, 15.8], "includesElement__glawe_number": [67, 97, 48], "includesElement__group_id": [11, 16, 3], "includesElement__heat_of_formation": [284.9, 249.229, 377.8], "includesElement__is_radioactive": [false], "includesElement__lattice_constant": [4.09, 6.83, 3.31], "includesElement__mendeleev_number": [72, 99, 11], "includesElement__molar_heat_capacity": [25.35, 29.378, 25.52], "includesElement__period": [5, 2, 4], "includesElement__pettifor_number": [71, 101, 20], "includesElement__specific_heat_capacity": [0.235, 0.918, 0.568], "includesElement__vdw_radius": [211.0, 152.0, 215.0], "includesElement__vdw_radius_alvarez": [253.0, 150.0, 258.0], "includesElement__vdw_radius_mm3": [243.0, 182.0, 261.0], "includesElement__vdw_radius_uff": [314.8, 350.0, 329.5], "includesElement__abundance_sea": [4e-05, 857000.0, 6e-07], "includesElement__atomic_weight_uncertainty": [0.0002, 5e-06], "includesElement__c6_gb": [341.0, 16.7, 1570.0], "includesElement__covalent_radius_bragg": [177.0, 65.0], "includesElement__electronegativity_allen": [11.05, 21.36, 7.042], "includesElement__en_allen": [11.05, 21.36, 7.042], "includesElement__metallic_radius": [134.0, 144.0], "includesElement__metallic_radius_c12": [144.0, 162.0], "includesElement__thermal_conductivity": [429.0, 0.027, 15.8], "includesElement__vdw_radius_batsanov": [210.0, 155.0, 230.0], "includesElement__discovery_year": [1774, 1879], "includesElement__c6": [15.6, 1383.0], "includesElement__vdw_radius_dreiding": [340.46], "includesElement__gas_basicity": [459.6, 892.0], "includesElement__proton_affinity": [485.2, 914.0], "includesElement__vdw_radius_bondi": [152.0], "includesElement__vdw_radius_rt": [158.0], "includesElement__is_monoisotopic": [true], "formula": ["Ag2O4Sc2"], "spacegroup": ["194"], "thermalConductivity": [2.61324], "icsd": ["95668"], "band_gap": [2.1264], "density": [5.538115], "density_atomic": [13.85425], "deprecated": [false], "efermi": [2.055729], "energy_above_hull": [0.0], "energy_per_atom": [-7.391982], "formation_energy_per_atom": [-2.621998], "homogeneous_poisson": [0.356], "is_gap_direct": [false], "is_magnetic": [false], "is_metal": [false], "is_stable": [true], "nelements": [3], "nsites": [8], "num_magnetic_sites": [0], "num_unique_magnetic_sites": [0], "theoretical": [true], "total_magnetization": [0.0], "total_magnetization_normalized_formula_units": [0.0], "total_magnetization_normalized_vol": [0.0], "uncorrected_energy_per_atom": [-13.67776], "universal_anisotropy": [5.108], "volume": [110.834], "cbm": [4.0464], "e_electronic": [5.843995], "e_ionic": [7.967586], "e_total": [13.81158], "equilibrium_reaction_energy_per_atom": [-0.02532906], "n": [2.417436], "vbm": [1.92]}