{"includesElement": ["", "Na", "Pd", "C"], "includesElement___series_id": [3, 8, 1], "includesElement__abundance_crust": [23600.0, 0.015, 200.0], "includesElement__atomic_number": [11, 46, 6], "includesElement__atomic_radius": [180.0, 140.0, 70.0], "includesElement__atomic_radius_rahm": [225.0, 215.0, 190.0], "includesElement__atomic_volume": [23.7, 8.9, 5.3], "includesElement__atomic_weight": [22.98977, 106.42, 12.011], "includesElement__covalent_radius_cordero": [166.0, 139.0, 73.0], "includesElement__covalent_radius_pyykko": [155.0, 120.0, 75.0], "includesElement__covalent_radius_pyykko_double": [160.0, 117.0, 67.0], "includesElement__density": [0.97, 12.0, 2.2], "includesElement__dipole_polarizability": [162.7, 26.14, 11.3], "includesElement__dipole_polarizability_unc": [0.5, 0.1, 0.2], "includesElement__discovery_year": [1807, 1803], "includesElement__electron_affinity": [0.547926, 0.562, 1.262119], "includesElement__electronegativity_allred-rochow": [9.157128e-05, 0.0004756944, 0.0005777778], "includesElement__electronegativity_cottrell-sutton": [0.1191367, 0.2389212, 0.2081666], "includesElement__electronegativity_ghosh": [0.093214, 0.1440276, 0.224776], "includesElement__electronegativity_gordy": [0.01419355, 0.05708333, 0.04333333], "includesElement__electronegativity_mulliken": [2.843501, 4.44943, 6.261208], "includesElement__electronegativity_nagle": [0.1831769, 0.7259357, 0.7073926], "includesElement__electronegativity_pauling": [0.93, 2.2, 2.55], "includesElement__electronegativity_sanderson": [0.09459764, 1.124263, 0.427525], "includesElement__en_ghosh": [0.093214, 0.1440276, 0.224776], "includesElement__en_pauling": [0.93, 2.2, 2.55], "includesElement__evaporation_heat": [97.9, 372.4], "includesElement__fusion_heat": [2.64, 17.24], "includesElement__glawe_number": [11, 65, 87], "includesElement__group_id": [1, 10, 14], "includesElement__heat_of_formation": [107.5, 376.6, 716.87], "includesElement__is_radioactive": [false], "includesElement__lattice_constant": [4.23, 3.89, 3.57], "includesElement__mendeleev_number": [2, 68, 87], "includesElement__molar_heat_capacity": [28.23, 25.98, 8.517], "includesElement__period": [3, 5, 2], "includesElement__pettifor_number": [11, 69, 95], "includesElement__specific_heat_capacity": [1.228, 0.246, 0.709], "includesElement__vdw_radius": [227.0, 210.0, 170.0], "includesElement__vdw_radius_alvarez": [250.0, 215.0, 177.0], "includesElement__vdw_radius_mm3": [270.0, 237.0, 204.0], "includesElement__vdw_radius_uff": [298.3, 289.9, 385.1], "includesElement__abundance_sea": [10800.0, 28.0], "includesElement__atomic_weight_uncertainty": [2e-08, 0.01], "includesElement__c6_gb": [1570.0, 628.0, 47.9], "includesElement__covalent_radius_bragg": [177.0, 77.0], "includesElement__electronegativity_allen": [5.14, 9.402, 15.05], "includesElement__en_allen": [5.14, 9.402, 15.05], "includesElement__metallic_radius": [157.0, 128.0], "includesElement__metallic_radius_c12": [190.0, 137.0, 86.0], "includesElement__thermal_conductivity": [142.0, 71.8, 1.59], "includesElement__vdw_radius_batsanov": [240.0, 205.0, 170.0], "includesElement__c6": [1518.0, 46.6], "includesElement__is_monoisotopic": [true], "includesElement__vdw_radius_bondi": [227.0, 170.0], "includesElement__covalent_radius_pyykko_triple": [112.0, 60.0], "includesElement__gas_basicity": [673.4], "includesElement__proton_affinity": [696.0], "includesElement__vdw_radius_dreiding": [389.83], "includesElement__vdw_radius_rt": [177.0], "formula": ["C2Na2Pd1"], "spacegroup": ["164"], "thermalConductivity": [5.55749], "icsd": ["411388"], "band_gap": [0.8829], "density": [3.145073], "density_atomic": [18.62938], "deprecated": [false], "efermi": [0.8920747], "energy_above_hull": [0.04526563], "energy_per_atom": [-5.223018], "formation_energy_per_atom": [0.04111274], "homogeneous_poisson": [0.297], "is_gap_direct": [false], "is_magnetic": [false], "is_metal": [false], "is_stable": [false], "nelements": [3], "nsites": [5], "num_magnetic_sites": [0], "num_unique_magnetic_sites": [0], "theoretical": [false], "total_magnetization": [0.0], "total_magnetization_normalized_formula_units": [0.0], "total_magnetization_normalized_vol": [0.0], "uncorrected_energy_per_atom": [-5.223018], "universal_anisotropy": [10.336], "volume": [93.1469], "cbm": [1.6691], "vbm": [0.7862]}