{"includesElement": ["", "Si", "La", "Ir"], "includesElement___series_id": [5, 9, 8], "includesElement__abundance_crust": [282000.0, 39.0, 0.001], "includesElement__atomic_number": [14, 57, 77], "includesElement__atomic_radius": [110.0, 195.0, 135.0], "includesElement__atomic_radius_rahm": [232.0, 284.0, 240.0], "includesElement__atomic_volume": [12.1, 22.5, 8.54], "includesElement__atomic_weight": [28.085, 138.9055, 192.217], "includesElement__covalent_radius_cordero": [111.0, 207.0, 141.0], "includesElement__covalent_radius_pyykko": [116.0, 180.0, 122.0], "includesElement__covalent_radius_pyykko_double": [107.0, 139.0, 115.0], "includesElement__covalent_radius_pyykko_triple": [102.0, 139.0, 107.0], "includesElement__density": [2.3296, 6.15, 22.5622], "includesElement__dipole_polarizability": [37.3, 215.0, 54.0], "includesElement__dipole_polarizability_unc": [0.7, 20.0, 7.0], "includesElement__discovery_year": [1824, 1839, 1804], "includesElement__electron_affinity": [1.389521, 0.47, 1.5638], "includesElement__electronegativity_allred-rochow": [0.0003084126, 9.259259e-05, 0.0002620263], "includesElement__electronegativity_cottrell-sutton": [0.1891451, 0.1290994, 0.1787938], "includesElement__electronegativity_ghosh": [0.178503, 0.163142, 0.25106], "includesElement__electronegativity_gordy": [0.03577586, 0.01666667, 0.03196721], "includesElement__electronegativity_mulliken": [4.770602, 3.02345, 5.26541], "includesElement__electronegativity_nagle": [0.4750986, 0.240747, 0.5503212], "includesElement__electronegativity_pauling": [1.9, 1.1, 2.2], "includesElement__electronegativity_sanderson": [0.3468158, 0.3946505, 1.475998], "includesElement__en_ghosh": [0.178503, 0.163142, 0.25106], "includesElement__en_pauling": [1.9, 1.1, 2.2], "includesElement__evaporation_heat": [383.0, 402.0, 604.0], "includesElement__fusion_heat": [50.6, 8.5, 27.61], "includesElement__glawe_number": [85, 32, 62], "includesElement__group_id": [14, 3, 9], "includesElement__heat_of_formation": [450.0, 431.0, 669.0], "includesElement__is_radioactive": [false], "includesElement__lattice_constant": [5.43, 3.75, 3.84], "includesElement__mendeleev_number": [88, 13, 65], "includesElement__molar_heat_capacity": [19.99, 27.11, 25.1], "includesElement__period": [3, 6], "includesElement__pettifor_number": [85, 33, 65], "includesElement__specific_heat_capacity": [0.712, 0.195, 0.131], "includesElement__vdw_radius": [210.0, 243.0, 213.0], "includesElement__vdw_radius_alvarez": [219.0, 298.0, 241.0], "includesElement__vdw_radius_mm3": [229.0, 278.0, 236.0], "includesElement__vdw_radius_uff": [429.5, 352.2, 284.0], "includesElement__abundance_sea": [2.2, 3.4e-06], "includesElement__c6_gb": [308.0, 3730.0, 522.0], "includesElement__covalent_radius_bragg": [117.0], "includesElement__electronegativity_allen": [11.33, 9.96], "includesElement__en_allen": [11.33, 9.96], "includesElement__metallic_radius": [117.0, 169.0, 127.0], "includesElement__metallic_radius_c12": [138.0, 187.0, 136.0], "includesElement__thermal_conductivity": [149.0, 13.4, 147.0], "includesElement__vdw_radius_batsanov": [210.0, 250.0, 200.0], "includesElement__c6": [305.0], "includesElement__vdw_radius_dreiding": [427.0], "includesElement__gas_basicity": [814.1, 991.9], "includesElement__proton_affinity": [837.0, 1013.0], "includesElement__vdw_radius_bondi": [210.0], "includesElement__atomic_weight_uncertainty": [7e-05, 0.003], "formula": ["Ir4La4Si4"], "spacegroup": ["198"], "thermalConductivity": [1.37671], "icsd": ["27187"], "band_gap": [0.0], "density": [9.049975], "density_atomic": [21.96982], "deprecated": [false], "efermi": [8.42857], "energy_above_hull": [0.0], "energy_per_atom": [-7.399325], "formation_energy_per_atom": [-0.9994051], "is_gap_direct": [false], "is_magnetic": [false], "is_metal": [true], "is_stable": [true], "nelements": [3], "nsites": [12], "num_magnetic_sites": [0], "num_unique_magnetic_sites": [0], "theoretical": [false], "total_magnetization": [3e-07], "total_magnetization_normalized_formula_units": [7.5e-08], "total_magnetization_normalized_vol": [1.137925e-09], "uncorrected_energy_per_atom": [-31.41526], "volume": [263.6378], "equilibrium_reaction_energy_per_atom": [-0.09333923]}