{"includesElement": ["", "Ni", "Sb", "Lu"], "includesElement___series_id": [8, 5], "includesElement__abundance_crust": [84.0, 0.2, 0.8], "includesElement__atomic_number": [28, 51, 71], "includesElement__atomic_radius": [135.0, 145.0, 175.0], "includesElement__atomic_radius_rahm": [229.0, 246.0, 270.0], "includesElement__atomic_volume": [6.6, 18.4, 17.8], "includesElement__atomic_weight": [58.6934, 121.76, 174.9668], "includesElement__covalent_radius_cordero": [124.0, 139.0, 187.0], "includesElement__covalent_radius_pyykko": [110.0, 140.0, 162.0], "includesElement__covalent_radius_pyykko_double": [101.0, 133.0, 131.0], "includesElement__covalent_radius_pyykko_triple": [101.0, 127.0, 131.0], "includesElement__density": [8.9, 6.68, 9.84], "includesElement__dipole_polarizability": [49.0, 43.0, 137.0], "includesElement__dipole_polarizability_unc": [3.0, 2.0, 7.0], "includesElement__discovery_year": [1751, 1907], "includesElement__electron_affinity": [1.156, 1.046, 0.34], "includesElement__electronegativity_allred-rochow": [0.0003347107, 0.0003214286, 0.0001143118], "includesElement__electronegativity_cottrell-sutton": [0.1918806, 0.212132, 0.1360828], "includesElement__electronegativity_ghosh": [0.1472068, 0.1918774, 0.22565], "includesElement__electronegativity_gordy": [0.03681818, 0.045, 0.01851852], "includesElement__electronegativity_mulliken": [4.397939, 4.827195, 2.882935], "includesElement__electronegativity_nagle": [0.588755, 0.4880907, 0.4987805], "includesElement__electronegativity_pauling": [1.91, 2.05, 1.0], "includesElement__electronegativity_sanderson": [0.937704, 0.7762722, 0.6027398], "includesElement__en_ghosh": [0.1472068, 0.1918774, 0.22565], "includesElement__en_pauling": [1.91, 2.05, 1.0], "includesElement__evaporation_heat": [378.6, 195.2, 414.0], "includesElement__fusion_heat": [17.61, 20.08], "includesElement__glawe_number": [69, 91, 19], "includesElement__group_id": [10, 15], "includesElement__heat_of_formation": [430.1, 264.4, 427.6], "includesElement__is_radioactive": [false], "includesElement__lattice_constant": [3.52, 4.51, 3.51], "includesElement__mendeleev_number": [67, 96, 41], "includesElement__molar_heat_capacity": [26.07, 25.23, 26.86], "includesElement__period": [4, 5, 6], "includesElement__pettifor_number": [67, 88, 21], "includesElement__specific_heat_capacity": [0.444, 0.207, 0.154], "includesElement__vdw_radius": [197.0, 206.0, 224.0], "includesElement__vdw_radius_alvarez": [240.0, 247.0, 274.0], "includesElement__vdw_radius_mm3": [222.0, 252.0, 265.0], "includesElement__vdw_radius_uff": [283.4, 442.0, 364.0], "includesElement__abundance_sea": [0.00056, 0.00024, 1.5e-07], "includesElement__atomic_weight_uncertainty": [0.0004, 0.001, 0.0001], "includesElement__c6_gb": [393.0, 504.0, 2020.0], "includesElement__covalent_radius_bragg": [135.0, 140.0], "includesElement__electronegativity_allen": [11.13, 11.74, 6.455], "includesElement__en_allen": [11.13, 11.74, 6.455], "includesElement__metallic_radius": [115.0, 139.0], "includesElement__metallic_radius_c12": [124.0, 166.0], "includesElement__thermal_conductivity": [90.9, 24.43], "includesElement__vdw_radius_batsanov": [200.0, 220.0], "includesElement__c6": [373.0, 492.0], "includesElement__gas_basicity": [714.1, 970.6], "includesElement__proton_affinity": [737.0, 992.0], "includesElement__vdw_radius_dreiding": [435.0], "includesElement__vdw_radius_truhlar": [206.0], "formula": ["Lu1Ni1Sb1", "LuNiSb"], "mp_id": ["20185"], "spacegroup": ["216"], "thermalConductivity": [10.5306, 9.97], "icsd": ["44913"], "band_gap": [0.2146], "density": [9.839938], "density_atomic": [19.99299], "deprecated": [false], "efermi": [6.761593], "energy_above_hull": [0.0], "energy_per_atom": [-26.24416], "formation_energy_per_atom": [-0.9881912], "homogeneous_poisson": [0.232], "is_gap_direct": [false], "is_magnetic": [false], "is_metal": [false], "is_stable": [true], "nelements": [3], "nsites": [3], "num_magnetic_sites": [0], "num_unique_magnetic_sites": [0], "theoretical": [false], "total_magnetization": [0.0], "total_magnetization_normalized_formula_units": [0.0], "total_magnetization_normalized_vol": [0.0], "uncorrected_energy_per_atom": [-26.24416], "universal_anisotropy": [0.059], "volume": [59.97898], "cbm": [6.8735], "equilibrium_reaction_energy_per_atom": [-0.1660475], "vbm": [6.6589]}