{"includesElement": ["", "Ga", "Sc", "C"], "includesElement___series_id": [7, 8, 1], "includesElement__abundance_crust": [19.0, 22.0, 200.0], "includesElement__atomic_number": [31, 21, 6], "includesElement__atomic_radius": [130.0, 160.0, 70.0], "includesElement__atomic_radius_rahm": [233.0, 263.0, 190.0], "includesElement__atomic_volume": [11.8, 15.0, 5.3], "includesElement__atomic_weight": [69.723, 44.95591, 12.011], "includesElement__covalent_radius_cordero": [122.0, 170.0, 73.0], "includesElement__covalent_radius_pyykko": [124.0, 148.0, 75.0], "includesElement__covalent_radius_pyykko_double": [117.0, 116.0, 67.0], "includesElement__covalent_radius_pyykko_triple": [121.0, 114.0, 60.0], "includesElement__density": [5.91, 2.99, 2.2], "includesElement__dipole_polarizability": [50.0, 97.0, 11.3], "includesElement__dipole_polarizability_unc": [3.0, 10.0, 0.2], "includesElement__discovery_year": [1875, 1879], "includesElement__electron_affinity": [0.43, 0.188, 1.262119], "includesElement__electronegativity_allred-rochow": [0.0003251821, 0.0001369613, 0.0005777778], "includesElement__electronegativity_cottrell-sutton": [0.2008048, 0.1423737, 0.2081666], "includesElement__electronegativity_ghosh": [0.1723773, 0.1193833, 0.224776], "includesElement__electronegativity_gordy": [0.04032258, 0.02027027, 0.04333333], "includesElement__electronegativity_mulliken": [3.214651, 3.374745, 6.261208], "includesElement__electronegativity_nagle": [0.3914868, 0.3138941, 0.7073926], "includesElement__electronegativity_pauling": [1.81, 1.36, 2.55], "includesElement__electronegativity_sanderson": [0.720541, 0.3038674, 0.427525], "includesElement__en_ghosh": [0.1723773, 0.1193833, 0.224776], "includesElement__en_pauling": [1.81, 1.36, 2.55], "includesElement__evaporation_heat": [270.3, 332.7], "includesElement__fusion_heat": [5.59, 15.8], "includesElement__glawe_number": [79, 48, 87], "includesElement__group_id": [13, 3, 14], "includesElement__heat_of_formation": [271.96, 377.8, 716.87], "includesElement__is_radioactive": [false], "includesElement__lattice_constant": [4.51, 3.31, 3.57], "includesElement__mendeleev_number": [83, 11, 87], "includesElement__molar_heat_capacity": [26.03, 25.52, 8.517], "includesElement__period": [4, 2], "includesElement__pettifor_number": [81, 20, 95], "includesElement__specific_heat_capacity": [0.373, 0.568, 0.709], "includesElement__vdw_radius": [187.0, 215.0, 170.0], "includesElement__vdw_radius_alvarez": [232.0, 258.0, 177.0], "includesElement__vdw_radius_mm3": [246.0, 261.0, 204.0], "includesElement__vdw_radius_uff": [438.3, 329.5, 385.1], "includesElement__abundance_sea": [3e-05, 6e-07, 28.0], "includesElement__atomic_weight_uncertainty": [0.001, 5e-06], "includesElement__c6_gb": [456.0, 1570.0, 47.9], "includesElement__electronegativity_allen": [10.39, 7.042, 15.05], "includesElement__en_allen": [10.39, 7.042, 15.05], "includesElement__metallic_radius": [125.0, 144.0], "includesElement__metallic_radius_c12": [140.0, 162.0, 86.0], "includesElement__thermal_conductivity": [28.1, 15.8, 1.59], "includesElement__vdw_radius_batsanov": [210.0, 230.0, 170.0], "includesElement__c6": [498.0, 1383.0, 46.6], "includesElement__vdw_radius_dreiding": [439.0, 389.83], "includesElement__vdw_radius_bondi": [187.0, 170.0], "includesElement__is_monoisotopic": [true], "includesElement__gas_basicity": [892.0], "includesElement__proton_affinity": [914.0], "includesElement__covalent_radius_bragg": [77.0], "includesElement__vdw_radius_rt": [177.0], "formula": ["C1Ga1Sc3"], "spacegroup": ["221"], "thermalConductivity": [19.9291], "icsd": ["50162"], "band_gap": [0.0], "density": [4.015395], "density_atomic": [17.91481], "deprecated": [false], "efermi": [4.019394], "energy_above_hull": [0.0], "energy_per_atom": [-6.922801], "formation_energy_per_atom": [-0.6719668], "is_gap_direct": [false], "is_magnetic": [false], "is_metal": [true], "is_stable": [true], "nelements": [3], "nsites": [5], "num_magnetic_sites": [0], "num_unique_magnetic_sites": [0], "theoretical": [false], "total_magnetization": [2e-06], "total_magnetization_normalized_formula_units": [2e-06], "total_magnetization_normalized_vol": [2.23279e-08], "uncorrected_energy_per_atom": [-11.8876], "volume": [89.57405], "equilibrium_reaction_energy_per_atom": [-0.1523245]}