{"includesElement": ["", "Nb", "In", "C"], "includesElement___series_id": [8, 7, 1], "includesElement__abundance_crust": [20.0, 0.25, 200.0], "includesElement__atomic_number": [41, 49, 6], "includesElement__atomic_radius": [145.0, 155.0, 70.0], "includesElement__atomic_radius_rahm": [251.0, 246.0, 190.0], "includesElement__atomic_volume": [10.8, 15.7, 5.3], "includesElement__atomic_weight": [92.90637, 114.818, 12.011], "includesElement__covalent_radius_cordero": [164.0, 142.0, 73.0], "includesElement__covalent_radius_pyykko": [147.0, 142.0, 75.0], "includesElement__covalent_radius_pyykko_double": [125.0, 136.0, 67.0], "includesElement__covalent_radius_pyykko_triple": [116.0, 146.0, 60.0], "includesElement__density": [8.57, 7.31, 2.2], "includesElement__dipole_polarizability": [98.0, 65.0, 11.3], "includesElement__dipole_polarizability_unc": [8.0, 4.0, 0.2], "includesElement__discovery_year": [1801, 1863], "includesElement__electron_affinity": [0.917406, 0.3, 1.262119], "includesElement__electronegativity_allred-rochow": [0.0001295756, 0.0002479667, 0.0005777778], "includesElement__electronegativity_cottrell-sutton": [0.1380131, 0.1876467, 0.2081666], "includesElement__electronegativity_ghosh": [0.1280782, 0.16423, 0.224776], "includesElement__electronegativity_gordy": [0.01904762, 0.03521127, 0.04333333], "includesElement__electronegativity_mulliken": [3.838128, 3.043178, 6.261208], "includesElement__electronegativity_nagle": [0.3708924, 0.3587038, 0.7073926], "includesElement__electronegativity_pauling": [1.6, 1.78, 2.55], "includesElement__electronegativity_sanderson": [0.5561695, 0.7172747, 0.427525], "includesElement__en_ghosh": [0.1280782, 0.16423, 0.224776], "includesElement__en_pauling": [1.6, 1.78, 2.55], "includesElement__evaporation_heat": [680.0, 225.1], "includesElement__fusion_heat": [26.8, 3.24], "includesElement__glawe_number": [53, 80, 87], "includesElement__group_id": [5, 13, 14], "includesElement__heat_of_formation": [733.0, 243.0, 716.87], "includesElement__is_radioactive": [false], "includesElement__lattice_constant": [3.3, 4.59, 3.57], "includesElement__mendeleev_number": [48, 84, 87], "includesElement__molar_heat_capacity": [24.6, 26.74, 8.517], "includesElement__period": [5, 2], "includesElement__pettifor_number": [52, 79, 95], "includesElement__specific_heat_capacity": [0.265, 0.233, 0.709], "includesElement__vdw_radius": [218.0, 193.0, 170.0], "includesElement__vdw_radius_alvarez": [256.0, 243.0, 177.0], "includesElement__vdw_radius_mm3": [243.0, 264.0, 204.0], "includesElement__vdw_radius_uff": [316.5, 446.3, 385.1], "includesElement__abundance_sea": [1e-05, 0.02, 28.0], "includesElement__atomic_weight_uncertainty": [2e-05, 0.001], "includesElement__c6_gb": [1140.0, 643.0, 47.9], "includesElement__electronegativity_allen": [8.34, 9.793, 15.05], "includesElement__en_allen": [8.34, 9.793, 15.05], "includesElement__metallic_radius": [134.0, 142.0], "includesElement__metallic_radius_c12": [146.0, 158.0, 86.0], "includesElement__thermal_conductivity": [53.7, 81.8, 1.59], "includesElement__vdw_radius_batsanov": [215.0, 220.0, 170.0], "includesElement__is_monoisotopic": [true], "includesElement__c6": [779.0, 46.6], "includesElement__vdw_radius_dreiding": [459.0, 389.83], "includesElement__vdw_radius_bondi": [193.0, 170.0], "includesElement__covalent_radius_bragg": [77.0], "includesElement__vdw_radius_rt": [177.0], "formula": ["C2In2Nb4"], "spacegroup": ["194"], "thermalConductivity": [14.7137], "icsd": ["163507"], "band_gap": [0.0], "density": [8.132067], "density_atomic": [15.96007], "deprecated": [false], "efermi": [7.053448], "energy_above_hull": [0.0], "energy_per_atom": [-8.452954], "formation_energy_per_atom": [-0.4053421], "homogeneous_poisson": [0.245], "is_gap_direct": [false], "is_magnetic": [false], "is_metal": [true], "is_stable": [true], "nelements": [3], "nsites": [8], "num_magnetic_sites": [0], "num_unique_magnetic_sites": [0], "theoretical": [false], "total_magnetization": [8e-07], "total_magnetization_normalized_formula_units": [4e-07], "total_magnetization_normalized_vol": [6.265638e-09], "uncorrected_energy_per_atom": [-20.98103], "universal_anisotropy": [0.082], "volume": [127.6805], "equilibrium_reaction_energy_per_atom": [-0.05581848]}