{"includesElement": ["", "As", "Hf"], "includesElement___series_id": [5, 8], "includesElement__abundance_crust": [1.8, 3.0], "includesElement__atomic_number": [33, 72], "includesElement__atomic_radius": [115.0, 155.0], "includesElement__atomic_radius_rahm": [231.0, 264.0], "includesElement__atomic_volume": [13.1, 13.6], "includesElement__atomic_weight": [74.92159, 178.49], "includesElement__covalent_radius_cordero": [119.0, 175.0], "includesElement__covalent_radius_pyykko": [121.0, 152.0], "includesElement__covalent_radius_pyykko_double": [114.0, 128.0], "includesElement__covalent_radius_pyykko_triple": [106.0, 122.0], "includesElement__density": [5.75, 13.3], "includesElement__dipole_polarizability": [30.0, 103.0], "includesElement__dipole_polarizability_unc": [1.0, 6.0], "includesElement__electron_affinity": [0.804, 0.014], "includesElement__electronegativity_allred-rochow": [0.0004302985, 0.00013634], "includesElement__electronegativity_cottrell-sutton": [0.22818, 0.1439572], "includesElement__electronegativity_ghosh": [0.2068208, 0.229987], "includesElement__electronegativity_gordy": [0.05206612, 0.02072368], "includesElement__electronegativity_mulliken": [5.2965, 3.419535], "includesElement__electronegativity_nagle": [0.5503212, 0.3386421], "includesElement__electronegativity_pauling": [2.18, 1.3], "includesElement__electronegativity_sanderson": [0.8253373, 0.7352125], "includesElement__en_ghosh": [0.2068208, 0.229987], "includesElement__en_pauling": [2.18, 1.3], "includesElement__evaporation_heat": [32.4, 575.0], "includesElement__glawe_number": [90, 50], "includesElement__group_id": [15, 4], "includesElement__heat_of_formation": [302.5, 618.4], "includesElement__is_radioactive": [false], "includesElement__lattice_constant": [4.13, 3.2], "includesElement__mendeleev_number": [95, 45], "includesElement__molar_heat_capacity": [24.64, 25.73], "includesElement__period": [4, 6], "includesElement__pettifor_number": [89, 50], "includesElement__specific_heat_capacity": [0.329, 0.144], "includesElement__vdw_radius": [185.0, 223.0], "includesElement__vdw_radius_alvarez": [188.0, 263.0], "includesElement__vdw_radius_mm3": [236.0, 253.0], "includesElement__vdw_radius_uff": [423.0, 314.1], "includesElement__abundance_sea": [0.0037, 7e-06], "includesElement__atomic_weight_uncertainty": [6e-06, 0.02], "includesElement__c6_gb": [260.0, 1040.0], "includesElement__covalent_radius_bragg": [126.0], "includesElement__electronegativity_allen": [13.08, 6.83], "includesElement__en_allen": [13.08, 6.83], "includesElement__metallic_radius": [121.0, 144.0], "includesElement__metallic_radius_c12": [148.0, 159.0], "includesElement__vdw_radius_batsanov": [205.0, 225.0], "includesElement__c6": [246.0], "includesElement__is_monoisotopic": [true], "includesElement__vdw_radius_dreiding": [415.0], "includesElement__vdw_radius_bondi": [185.0], "includesElement__discovery_year": [1923], "includesElement__fusion_heat": [25.1], "includesElement__thermal_conductivity": [23.0], "formula": ["As4Hf4"], "spacegroup": ["194"], "thermalConductivity": [5.63464], "icsd": ["42915"], "band_gap": [0.0], "density": [10.68773], "density_atomic": [19.68612], "deprecated": [false], "efermi": [6.247945], "energy_above_hull": [0.0], "energy_per_atom": [-8.305696], "formation_energy_per_atom": [-0.9920403], "homogeneous_poisson": [0.281], "is_gap_direct": [false], "is_magnetic": [false], "is_metal": [true], "is_stable": [true], "nelements": [2], "nsites": [8], "num_magnetic_sites": [0], "num_unique_magnetic_sites": [0], "theoretical": [false], "total_magnetization": [0.0], "total_magnetization_normalized_formula_units": [0.0], "total_magnetization_normalized_vol": [0.0], "uncorrected_energy_per_atom": [-31.0875], "universal_anisotropy": [1.321], "volume": [157.4889], "equilibrium_reaction_energy_per_atom": [-0.1498879]}