{"includesElement": ["", "Ga", "Mn", "Co"], "includesElement___series_id": [7, 8], "includesElement__abundance_crust": [19.0, 950.0, 25.0], "includesElement__atomic_number": [31, 25, 27], "includesElement__atomic_radius": [130.0, 140.0, 135.0], "includesElement__atomic_radius_rahm": [233.0, 242.0], "includesElement__atomic_volume": [11.8, 7.39, 6.7], "includesElement__atomic_weight": [69.723, 54.93804, 58.93319], "includesElement__covalent_radius_cordero": [122.0, 150.0, 138.0], "includesElement__covalent_radius_pyykko": [124.0, 119.0, 111.0], "includesElement__covalent_radius_pyykko_double": [117.0, 105.0, 103.0], "includesElement__covalent_radius_pyykko_triple": [121.0, 103.0, 96.0], "includesElement__density": [5.91, 7.3, 8.86], "includesElement__dipole_polarizability": [50.0, 68.0, 55.0], "includesElement__dipole_polarizability_unc": [3.0, 9.0, 4.0], "includesElement__discovery_year": [1875, 1774, 1739], "includesElement__electron_affinity": [0.43, 0.6622565], "includesElement__electronegativity_allred-rochow": [0.0003251821, 0.0002542193, 0.0003165327], "includesElement__electronegativity_cottrell-sutton": [0.2008048, 0.1739313, 0.1874437], "includesElement__electronegativity_ghosh": [0.1723773, 0.1352844, 0.1432363], "includesElement__electronegativity_gordy": [0.04032258, 0.0302521, 0.03513514], "includesElement__electronegativity_mulliken": [3.214651, 3.717009, 4.271633], "includesElement__electronegativity_nagle": [0.3914868, 0.4686656, 0.5469655], "includesElement__electronegativity_pauling": [1.81, 1.55, 1.88], "includesElement__electronegativity_sanderson": [0.720541, 0.6707264, 0.8832424], "includesElement__en_ghosh": [0.1723773, 0.1352844, 0.1432363], "includesElement__en_pauling": [1.81, 1.55, 1.88], "includesElement__evaporation_heat": [270.3, 221.0, 389.1], "includesElement__fusion_heat": [5.59, 13.4, 15.48], "includesElement__glawe_number": [79, 72, 70], "includesElement__group_id": [13, 7, 9], "includesElement__heat_of_formation": [271.96, 283.3, 426.7], "includesElement__is_radioactive": [false], "includesElement__lattice_constant": [4.51, 8.89, 2.51], "includesElement__mendeleev_number": [83, 55, 63], "includesElement__molar_heat_capacity": [26.03, 26.32, 24.81], "includesElement__period": [4], "includesElement__pettifor_number": [81, 60, 64], "includesElement__specific_heat_capacity": [0.373, 0.479, 0.421], "includesElement__vdw_radius": [187.0, 205.0, 200.0], "includesElement__vdw_radius_alvarez": [232.0, 245.0, 240.0], "includesElement__vdw_radius_mm3": [246.0, 224.0, 223.0], "includesElement__vdw_radius_uff": [438.3, 296.1, 287.2], "includesElement__abundance_sea": [3e-05, 0.0002, 2e-05], "includesElement__atomic_weight_uncertainty": [0.001, 3e-06, 4e-06], "includesElement__c6_gb": [456.0, 635.0, 461.0], "includesElement__electronegativity_allen": [10.39, 10.34, 10.86], "includesElement__en_allen": [10.39, 10.34, 10.86], "includesElement__metallic_radius": [125.0, 118.0, 116.0], "includesElement__metallic_radius_c12": [140.0, 127.0, 125.0], "includesElement__thermal_conductivity": [28.1, 100.0], "includesElement__vdw_radius_batsanov": [210.0, 205.0, 200.0], "includesElement__c6": [498.0, 552.0, 408.0], "includesElement__vdw_radius_dreiding": [439.0], "includesElement__vdw_radius_bondi": [187.0], "includesElement__covalent_radius_bragg": [147.0, 137.0], "includesElement__is_monoisotopic": [true], "includesElement__gas_basicity": [774.4, 719.8], "includesElement__proton_affinity": [797.3, 742.7], "formula": ["Co2Ga1Mn1"], "spacegroup": ["225"], "thermalConductivity": [4.26312], "icsd": ["102438"], "band_gap": [0.0], "density": [8.79593], "density_atomic": [11.44638], "deprecated": [false], "efermi": [5.491992], "energy_above_hull": [0.0], "energy_per_atom": [-6.844433], "formation_energy_per_atom": [-0.2301972], "homogeneous_poisson": [0.3], "is_gap_direct": [false], "is_magnetic": [true], "is_metal": [true], "is_stable": [true], "nelements": [3], "nsites": [4], "num_magnetic_sites": [3], "num_unique_magnetic_sites": [2], "theoretical": [false], "total_magnetization": [4.420387], "total_magnetization_normalized_formula_units": [4.420387], "total_magnetization_normalized_vol": [0.09654552], "uncorrected_energy_per_atom": [-13.42253], "universal_anisotropy": [2.257], "volume": [45.78552], "equilibrium_reaction_energy_per_atom": [-0.08881658]}