{"includesElement": ["", "Al", "O", "Gd"], "includesElement___series_id": [7, 1, 9], "includesElement__abundance_crust": [82300.0, 461000.0, 6.2], "includesElement__atomic_number": [13, 8, 64], "includesElement__atomic_radius": [125.0, 60.0, 180.0], "includesElement__atomic_radius_rahm": [239.0, 171.0, 277.0], "includesElement__atomic_volume": [10.0, 14.0, 19.9], "includesElement__atomic_weight": [26.98154, 15.999, 157.25], "includesElement__covalent_radius_cordero": [121.0, 66.0, 196.0], "includesElement__covalent_radius_pyykko": [126.0, 63.0, 169.0], "includesElement__covalent_radius_pyykko_double": [113.0, 57.0, 135.0], "includesElement__covalent_radius_pyykko_triple": [111.0, 53.0, 132.0], "includesElement__density": [2.7, 0.001308, 7.9], "includesElement__dipole_polarizability": [57.8, 5.3, 158.0], "includesElement__dipole_polarizability_unc": [1.0, 0.2, 20.0], "includesElement__discovery_year": [1825, 1774, 1880], "includesElement__electron_affinity": [0.43283, 1.461113], "includesElement__electronegativity_allred-rochow": [0.0002204586, 0.001146384, 0.0001050383], "includesElement__electronegativity_cottrell-sutton": [0.1666667, 0.2687419, 0.1332347], "includesElement__electronegativity_ghosh": [0.150078, 0.304575, 0.1944], "includesElement__electronegativity_gordy": [0.02777778, 0.07222222, 0.01775148], "includesElement__electronegativity_mulliken": [3.209299, 7.539584, 3.074898], "includesElement__electronegativity_nagle": [0.3730192, 1.042218, 0.3985177], "includesElement__electronegativity_pauling": [1.61, 3.44, 1.2], "includesElement__electronegativity_sanderson": [0.2360927, 0.9416494, 0.503386], "includesElement__en_ghosh": [0.150078, 0.304575, 0.1944], "includesElement__en_pauling": [1.61, 3.44, 1.2], "includesElement__evaporation_heat": [284.1, 398.0], "includesElement__fusion_heat": [10.75], "includesElement__glawe_number": [78, 97, 26], "includesElement__group_id": [13, 16], "includesElement__heat_of_formation": [330.9, 249.229, 397.5], "includesElement__is_radioactive": [false], "includesElement__lattice_constant": [4.05, 6.83, 3.64], "includesElement__mendeleev_number": [82, 99, 27], "includesElement__molar_heat_capacity": [24.2, 29.378, 37.03], "includesElement__period": [3, 2, 6], "includesElement__pettifor_number": [80, 101, 27], "includesElement__specific_heat_capacity": [0.897, 0.918, 0.236], "includesElement__vdw_radius": [184.0, 152.0, 234.0], "includesElement__vdw_radius_alvarez": [225.0, 150.0, 283.0], "includesElement__vdw_radius_mm3": [236.0, 182.0, 271.0], "includesElement__vdw_radius_uff": [449.9, 350.0, 336.8], "includesElement__abundance_sea": [0.002, 857000.0, 7e-07], "includesElement__atomic_weight_uncertainty": [7e-07, 0.03], "includesElement__c6_gb": [520.0, 16.7, 2340.0], "includesElement__covalent_radius_bragg": [135.0, 65.0], "includesElement__electronegativity_allen": [9.539, 21.36], "includesElement__en_allen": [9.539, 21.36], "includesElement__metallic_radius": [125.0], "includesElement__metallic_radius_c12": [143.0], "includesElement__thermal_conductivity": [237.0, 0.027], "includesElement__vdw_radius_batsanov": [210.0, 155.0], "includesElement__c6": [528.0, 15.6], "includesElement__is_monoisotopic": [true], "includesElement__vdw_radius_dreiding": [439.0, 340.46], "includesElement__vdw_radius_truhlar": [184.0], "includesElement__gas_basicity": [459.6], "includesElement__proton_affinity": [485.2], "includesElement__vdw_radius_bondi": [152.0], "includesElement__vdw_radius_rt": [158.0], "formula": ["Al4Gd4O12"], "spacegroup": ["62"], "thermalConductivity": [7.79564], "icsd": ["59848"], "band_gap": [3.2382], "density": [7.448381], "density_atomic": [10.35464], "deprecated": [false], "efermi": [4.37351], "energy_above_hull": [0.008384389], "energy_per_atom": [-10.22357], "formation_energy_per_atom": [-3.687868], "homogeneous_poisson": [0.253], "is_gap_direct": [false], "is_magnetic": [true], "is_metal": [false], "is_stable": [false], "nelements": [3], "nsites": [20], "num_magnetic_sites": [4], "num_unique_magnetic_sites": [1], "theoretical": [false], "total_magnetization": [28.0], "total_magnetization_normalized_formula_units": [7.0], "total_magnetization_normalized_vol": [0.1352051], "uncorrected_energy_per_atom": [-17.22513], "universal_anisotropy": [0.252], "volume": [207.0928], "cbm": [7.5262], "vbm": [4.288]}