{"includesElement": ["", "Si", "Os", "Ho"], "includesElement___series_id": [5, 8, 9], "includesElement__abundance_crust": [282000.0, 0.0015, 1.3], "includesElement__atomic_number": [14, 76, 67], "includesElement__atomic_radius": [110.0, 130.0, 175.0], "includesElement__atomic_radius_rahm": [232.0, 244.0, 273.0], "includesElement__atomic_volume": [12.1, 8.43, 18.7], "includesElement__atomic_weight": [28.085, 190.23, 164.9303], "includesElement__covalent_radius_cordero": [111.0, 144.0, 192.0], "includesElement__covalent_radius_pyykko": [116.0, 129.0, 166.0], "includesElement__covalent_radius_pyykko_double": [107.0, 116.0, 133.0], "includesElement__covalent_radius_pyykko_triple": [102.0, 109.0], "includesElement__density": [2.3296, 22.5872, 8.8], "includesElement__dipole_polarizability": [37.3, 57.0, 156.0], "includesElement__dipole_polarizability_unc": [0.7, 3.0, 10.0], "includesElement__discovery_year": [1824, 1804, 1878], "includesElement__electron_affinity": [1.389521, 1.1], "includesElement__electronegativity_allred-rochow": [0.0003084126, 0.000225347, 0.0001034258], "includesElement__electronegativity_cottrell-sutton": [0.1891451, 0.1704986, 0.1310293], "includesElement__electronegativity_ghosh": [0.178503, 0.2479845, 0.207795], "includesElement__electronegativity_gordy": [0.03577586, 0.02906977, 0.01716867], "includesElement__electronegativity_mulliken": [4.770602, 4.769115, 3.01075], "includesElement__electronegativity_nagle": [0.4750986, 0.5196828, 0.4367902], "includesElement__electronegativity_pauling": [1.9, 2.2, 1.23], "includesElement__electronegativity_sanderson": [0.3468158, 1.239276, 0.5434919], "includesElement__en_ghosh": [0.178503, 0.2479845, 0.207795], "includesElement__en_pauling": [1.9, 2.2, 1.23], "includesElement__evaporation_heat": [383.0, 738.0, 301.0], "includesElement__fusion_heat": [50.6, 31.7], "includesElement__glawe_number": [85, 60, 23], "includesElement__group_id": [14, 8], "includesElement__heat_of_formation": [450.0, 787.0, 300.6], "includesElement__is_radioactive": [false], "includesElement__lattice_constant": [5.43, 2.74, 3.58], "includesElement__mendeleev_number": [88, 61, 33], "includesElement__molar_heat_capacity": [19.99, 24.7, 27.15], "includesElement__period": [3, 6], "includesElement__pettifor_number": [85, 62, 24], "includesElement__specific_heat_capacity": [0.712, 0.13, 0.165], "includesElement__vdw_radius": [210.0, 216.0, 230.0], "includesElement__vdw_radius_alvarez": [219.0, 248.0, 281.0], "includesElement__vdw_radius_mm3": [229.0, 235.0, 267.0], "includesElement__vdw_radius_uff": [429.5, 312.0, 340.9], "includesElement__abundance_sea": [2.2, 2.2e-07], "includesElement__c6_gb": [308.0, 584.0, 2280.0], "includesElement__covalent_radius_bragg": [117.0], "includesElement__electronegativity_allen": [11.33, 9.78], "includesElement__en_allen": [11.33, 9.78], "includesElement__metallic_radius": [117.0, 126.0], "includesElement__metallic_radius_c12": [138.0, 135.0], "includesElement__thermal_conductivity": [149.0], "includesElement__vdw_radius_batsanov": [210.0, 200.0], "includesElement__c6": [305.0], "includesElement__vdw_radius_dreiding": [427.0], "includesElement__gas_basicity": [814.1], "includesElement__proton_affinity": [837.0], "includesElement__vdw_radius_bondi": [210.0], "includesElement__atomic_weight_uncertainty": [0.03, 2e-05], "includesElement__is_monoisotopic": [true], "formula": ["Ho1Os2Si2"], "spacegroup": ["139"], "thermalConductivity": [11.827], "icsd": ["56234"], "band_gap": [0.0], "density": [12.04796], "density_atomic": [16.58232], "deprecated": [false], "efermi": [7.047002], "energy_above_hull": [0.0], "energy_per_atom": [-32.08948], "formation_energy_per_atom": [-0.8096149], "homogeneous_poisson": [0.284], "is_gap_direct": [false], "is_magnetic": [false], "is_metal": [true], "is_stable": [true], "nelements": [3], "nsites": [5], "num_magnetic_sites": [0], "num_unique_magnetic_sites": [0], "theoretical": [false], "total_magnetization": [0.0], "total_magnetization_normalized_formula_units": [0.0], "total_magnetization_normalized_vol": [0.0], "uncorrected_energy_per_atom": [-32.08948], "universal_anisotropy": [0.067], "volume": [82.91162], "equilibrium_reaction_energy_per_atom": [-0.2731057]}