{"includesElement": ["", "N", "Pa"], "includesElement___series_id": [1, 10], "includesElement__abundance_crust": [19.0, 1.4e-06], "includesElement__atomic_number": [7, 91], "includesElement__atomic_radius": [65.0, 180.0], "includesElement__atomic_radius_rahm": [179.0, 285.0], "includesElement__atomic_volume": [17.3, 15.0], "includesElement__atomic_weight": [14.007, 231.0359], "includesElement__covalent_radius_cordero": [71.0, 200.0], "includesElement__covalent_radius_pyykko": [71.0, 169.0], "includesElement__covalent_radius_pyykko_double": [60.0, 138.0], "includesElement__covalent_radius_pyykko_triple": [54.0, 129.0], "includesElement__density": [0.001145, 15.4], "includesElement__dipole_polarizability": [7.4, 154.0], "includesElement__dipole_polarizability_unc": [0.2, 20.0], "includesElement__discovery_year": [1772, 1917], "includesElement__electron_affinity": [-1.4], "includesElement__electronegativity_allred-rochow": [0.000773656, 0.0001050383], "includesElement__electronegativity_cottrell-sutton": [0.2343706, 0.1332347], "includesElement__electronegativity_ghosh": [0.26493, 0.12149], "includesElement__electronegativity_gordy": [0.05492958, 0.01775148], "includesElement__electronegativity_mulliken": [6.567065, 2.945], "includesElement__electronegativity_nagle": [0.8774979, 0.3190189], "includesElement__electronegativity_pauling": [3.04, 1.5], "includesElement__electronegativity_sanderson": [0.577482, 0.6230657], "includesElement__en_ghosh": [0.26493, 0.12149], "includesElement__en_pauling": [3.04, 1.5], "includesElement__glawe_number": [88, 35], "includesElement__group_id": [15], "includesElement__heat_of_formation": [472.44, 563.0], "includesElement__is_radioactive": [false, true], "includesElement__lattice_constant": [4.039, 3.92], "includesElement__mendeleev_number": [93, 18], "includesElement__molar_heat_capacity": [29.124], "includesElement__period": [2, 7], "includesElement__pettifor_number": [100, 46], "includesElement__specific_heat_capacity": [1.04], "includesElement__vdw_radius": [155.0, 243.0], "includesElement__vdw_radius_alvarez": [166.0, 288.0], "includesElement__vdw_radius_mm3": [193.0, 264.0], "includesElement__vdw_radius_uff": [366.0, 342.4], "includesElement__abundance_sea": [0.5, 5e-11], "includesElement__c6_gb": [25.7], "includesElement__covalent_radius_bragg": [65.0], "includesElement__electronegativity_allen": [18.13], "includesElement__en_allen": [18.13], "includesElement__metallic_radius_c12": [53.0], "includesElement__thermal_conductivity": [0.026], "includesElement__vdw_radius_batsanov": [160.0], "includesElement__c6": [24.2], "includesElement__vdw_radius_dreiding": [366.21], "includesElement__gas_basicity": [318.7], "includesElement__proton_affinity": [342.2], "includesElement__vdw_radius_bondi": [155.0], "includesElement__vdw_radius_rt": [164.0], "includesElement__evaporation_heat": [481.2], "includesElement__fusion_heat": [16.7], "includesElement__atomic_weight_uncertainty": [2e-05], "includesElement__is_monoisotopic": [true], "formula": ["N1Pa1"], "spacegroup": ["225"], "thermalConductivity": [18.0307], "icsd": ["644621"], "band_gap": [0.0], "density": [13.45292], "density_atomic": [15.12321], "deprecated": [false], "efermi": [12.49177], "energy_above_hull": [0.0], "energy_per_atom": [-44.82013], "formation_energy_per_atom": [-1.827745], "homogeneous_poisson": [0.324], "is_gap_direct": [false], "is_magnetic": [false], "is_metal": [true], "is_stable": [true], "nelements": [2], "nsites": [2], "num_magnetic_sites": [0], "num_unique_magnetic_sites": [0], "theoretical": [false], "total_magnetization": [2.45e-05], "total_magnetization_normalized_formula_units": [2.45e-05], "total_magnetization_normalized_vol": [8.10013e-07], "uncorrected_energy_per_atom": [-44.82013], "universal_anisotropy": [1.036], "volume": [30.24643], "equilibrium_reaction_energy_per_atom": [-1.827745]}