{"includesElement": ["", "O", "Y", "Hf"], "includesElement___series_id": [1, 8], "includesElement__abundance_crust": [461000.0, 33.0, 3.0], "includesElement__atomic_number": [8, 39, 72], "includesElement__atomic_radius": [60.0, 180.0, 155.0], "includesElement__atomic_radius_rahm": [171.0, 274.0, 264.0], "includesElement__atomic_volume": [14.0, 19.8, 13.6], "includesElement__atomic_weight": [15.999, 88.90584, 178.49], "includesElement__covalent_radius_cordero": [66.0, 190.0, 175.0], "includesElement__covalent_radius_pyykko": [63.0, 163.0, 152.0], "includesElement__covalent_radius_pyykko_double": [57.0, 130.0, 128.0], "includesElement__covalent_radius_pyykko_triple": [53.0, 124.0, 122.0], "includesElement__density": [0.001308, 4.47, 13.3], "includesElement__dipole_polarizability": [5.3, 162.0, 103.0], "includesElement__dipole_polarizability_unc": [0.2, 12.0, 6.0], "includesElement__discovery_year": [1774, 1789, 1923], "includesElement__electron_affinity": [1.461113, 0.307, 0.014], "includesElement__electronegativity_allred-rochow": [0.001146384, 0.0001129135, 0.00013634], "includesElement__electronegativity_cottrell-sutton": [0.2687419, 0.1356647, 0.1439572], "includesElement__electronegativity_ghosh": [0.304575, 0.1216986, 0.229987], "includesElement__electronegativity_gordy": [0.07222222, 0.01840491, 0.02072368], "includesElement__electronegativity_mulliken": [7.539584, 3.26213, 3.419535], "includesElement__electronegativity_nagle": [1.042218, 0.2645668, 0.3386421], "includesElement__electronegativity_pauling": [3.44, 1.22, 1.3], "includesElement__electronegativity_sanderson": [0.9416494, 0.3923941, 0.7352125], "includesElement__en_ghosh": [0.304575, 0.1216986, 0.229987], "includesElement__en_pauling": [3.44, 1.22, 1.3], "includesElement__glawe_number": [97, 21, 50], "includesElement__group_id": [16, 3, 4], "includesElement__heat_of_formation": [249.229, 424.7, 618.4], "includesElement__is_radioactive": [false], "includesElement__lattice_constant": [6.83, 3.65, 3.2], "includesElement__mendeleev_number": [99, 12, 45], "includesElement__molar_heat_capacity": [29.378, 26.53, 25.73], "includesElement__period": [2, 5, 6], "includesElement__pettifor_number": [101, 19, 50], "includesElement__specific_heat_capacity": [0.918, 0.298, 0.144], "includesElement__vdw_radius": [152.0, 232.0, 223.0], "includesElement__vdw_radius_alvarez": [150.0, 275.0, 263.0], "includesElement__vdw_radius_mm3": [182.0, 271.0, 253.0], "includesElement__vdw_radius_uff": [350.0, 334.5, 314.1], "includesElement__abundance_sea": [857000.0, 1.3e-05, 7e-06], "includesElement__c6_gb": [16.7, 2600.0, 1040.0], "includesElement__covalent_radius_bragg": [65.0], "includesElement__electronegativity_allen": [21.36, 6.631, 6.83], "includesElement__en_allen": [21.36, 6.631, 6.83], "includesElement__thermal_conductivity": [0.027, 23.0], "includesElement__vdw_radius_batsanov": [155.0, 240.0, 225.0], "includesElement__c6": [15.6], "includesElement__vdw_radius_dreiding": [340.46], "includesElement__gas_basicity": [459.6, 945.9], "includesElement__proton_affinity": [485.2, 967.0], "includesElement__vdw_radius_bondi": [152.0], "includesElement__vdw_radius_rt": [158.0], "includesElement__evaporation_heat": [367.0, 575.0], "includesElement__fusion_heat": [11.5, 25.1], "includesElement__atomic_weight_uncertainty": [2e-05, 0.02], "includesElement__metallic_radius": [162.0, 144.0], "includesElement__metallic_radius_c12": [180.0, 159.0], "includesElement__is_monoisotopic": [true], "formula": ["Hf4O14Y4"], "spacegroup": ["227"], "thermalConductivity": [6.43897], "icsd": ["153819"], "band_gap": [3.3374], "density": [7.574199], "density_atomic": [12.89084], "deprecated": [false], "efermi": [2.536437], "energy_above_hull": [0.0], "energy_per_atom": [-19.61646], "formation_energy_per_atom": [-3.920589], "homogeneous_poisson": [0.263], "is_gap_direct": [false], "is_magnetic": [false], "is_metal": [false], "is_stable": [true], "nelements": [3], "nsites": [22], "num_magnetic_sites": [0], "num_unique_magnetic_sites": [0], "theoretical": [true], "total_magnetization": [0.0], "total_magnetization_normalized_formula_units": [0.0], "total_magnetization_normalized_vol": [0.0], "uncorrected_energy_per_atom": [-19.61646], "universal_anisotropy": [0.022], "volume": [283.5985], "cbm": [5.7845], "equilibrium_reaction_energy_per_atom": [-0.007843628], "vbm": [2.4471]}