{"includesElement": ["", "P", "Fe", "Ta"], "includesElement___series_id": [1, 8], "includesElement__abundance_crust": [1050.0, 56300.0, 2.0], "includesElement__atomic_number": [15, 26, 73], "includesElement__atomic_radius": [100.0, 140.0, 145.0], "includesElement__atomic_radius_rahm": [223.0, 237.0, 258.0], "includesElement__atomic_volume": [17.0, 7.1, 10.9], "includesElement__atomic_weight": [30.97376, 55.845, 180.9479], "includesElement__covalent_radius_cordero": [107.0, 142.0, 170.0], "includesElement__covalent_radius_pyykko": [111.0, 116.0, 146.0], "includesElement__covalent_radius_pyykko_double": [102.0, 109.0, 126.0], "includesElement__covalent_radius_pyykko_triple": [94.0, 102.0, 119.0], "includesElement__density": [1.823, 7.87, 16.4], "includesElement__dipole_polarizability": [25.0, 62.0, 74.0], "includesElement__dipole_polarizability_unc": [1.0, 4.0, 20.0], "includesElement__discovery_year": [1669, 1802], "includesElement__electron_affinity": [0.746607, 0.151, 0.322], "includesElement__electronegativity_allred-rochow": [0.0003895788, 0.0002786861, 0.0001548133], "includesElement__electronegativity_cottrell-sutton": [0.2079501, 0.1797987, 0.1503421], "includesElement__electronegativity_ghosh": [0.206931, 0.1392532, 0.234581], "includesElement__electronegativity_gordy": [0.04324324, 0.03232759, 0.02260274], "includesElement__electronegativity_mulliken": [5.616646, 4.026734, 3.935785], "includesElement__electronegativity_nagle": [0.5848035, 0.5053195, 0.4072985], "includesElement__electronegativity_pauling": [2.19, 1.83, 1.5], "includesElement__electronegativity_sanderson": [0.4510269, 0.748727, 0.8358832], "includesElement__en_ghosh": [0.206931, 0.1392532, 0.234581], "includesElement__en_pauling": [2.19, 1.83, 1.5], "includesElement__evaporation_heat": [49.8, 340.0, 758.0], "includesElement__fusion_heat": [2.51, 13.8, 24.7], "includesElement__glawe_number": [89, 71, 52], "includesElement__group_id": [15, 8, 5], "includesElement__heat_of_formation": [316.5, 415.5, 782.0], "includesElement__is_radioactive": [false], "includesElement__lattice_constant": [7.17, 2.87, 3.31], "includesElement__mendeleev_number": [94, 59, 49], "includesElement__molar_heat_capacity": [23.824, 25.1, 25.36], "includesElement__period": [3, 4, 6], "includesElement__pettifor_number": [90, 61, 53], "includesElement__specific_heat_capacity": [0.769, 0.449, 0.14], "includesElement__vdw_radius": [180.0, 204.0, 222.0], "includesElement__vdw_radius_alvarez": [190.0, 244.0, 253.0], "includesElement__vdw_radius_mm3": [222.0, 223.0, 243.0], "includesElement__vdw_radius_uff": [414.7, 291.2, 317.0], "includesElement__abundance_sea": [0.06, 0.002, 2e-06], "includesElement__atomic_weight_uncertainty": [5e-09, 0.002, 2e-05], "includesElement__c6_gb": [187.0, 548.0, 887.0], "includesElement__electronegativity_allen": [13.33, 10.64, 7.93], "includesElement__en_allen": [13.33, 10.64, 7.93], "includesElement__metallic_radius": [110.0, 117.0, 134.0], "includesElement__metallic_radius_c12": [128.0, 126.0, 146.0], "includesElement__vdw_radius_batsanov": [195.0, 205.0, 220.0], "includesElement__c6": [185.0, 482.0], "includesElement__is_monoisotopic": [true], "includesElement__vdw_radius_dreiding": [415.0], "includesElement__gas_basicity": [604.8, 731.1], "includesElement__proton_affinity": [626.8, 754.0], "includesElement__vdw_radius_bondi": [180.0], "includesElement__covalent_radius_bragg": [140.0], "includesElement__thermal_conductivity": [80.4, 57.5], "formula": ["Fe4P4Ta4"], "spacegroup": ["62"], "thermalConductivity": [11.2691], "icsd": ["49729"], "band_gap": [0.0], "density": [11.91483], "density_atomic": [12.43931], "deprecated": [false], "efermi": [8.854509], "energy_above_hull": [0.0], "energy_per_atom": [-9.420088], "formation_energy_per_atom": [-0.835947], "homogeneous_poisson": [0.263], "is_gap_direct": [false], "is_magnetic": [false], "is_metal": [true], "is_stable": [true], "nelements": [3], "nsites": [12], "num_magnetic_sites": [0], "num_unique_magnetic_sites": [0], "theoretical": [false], "total_magnetization": [0.0], "total_magnetization_normalized_formula_units": [0.0], "total_magnetization_normalized_vol": [0.0], "uncorrected_energy_per_atom": [-24.71068], "universal_anisotropy": [0.119], "volume": [149.2717], "equilibrium_reaction_energy_per_atom": [-0.2052887]}