{"includesElement": ["", "Na", "Li", "N"], "includesElement___series_id": [3, 1], "includesElement__abundance_crust": [23600.0, 20.0, 19.0], "includesElement__atomic_number": [11, 3, 7], "includesElement__atomic_radius": [180.0, 145.0, 65.0], "includesElement__atomic_radius_rahm": [225.0, 220.0, 179.0], "includesElement__atomic_volume": [23.7, 13.1, 17.3], "includesElement__atomic_weight": [22.98977, 6.94, 14.007], "includesElement__covalent_radius_cordero": [166.0, 128.0, 71.0], "includesElement__covalent_radius_pyykko": [155.0, 133.0, 71.0], "includesElement__covalent_radius_pyykko_double": [160.0, 124.0, 60.0], "includesElement__density": [0.97, 0.534, 0.001145], "includesElement__dipole_polarizability": [162.7, 164.1125, 7.4], "includesElement__dipole_polarizability_unc": [0.5, 0.0005, 0.2], "includesElement__discovery_year": [1807, 1817, 1772], "includesElement__electron_affinity": [0.547926, 0.618049, -1.4], "includesElement__electronegativity_allred-rochow": [9.157128e-05, 7.3492e-05, 0.000773656], "includesElement__electronegativity_cottrell-sutton": [0.1191367, 0.09886575, 0.2343706], "includesElement__electronegativity_ghosh": [0.093214, 0.105093, 0.26493], "includesElement__electronegativity_gordy": [0.01419355, 0.009774436, 0.05492958], "includesElement__electronegativity_mulliken": [2.843501, 3.004882, 6.567065], "includesElement__electronegativity_nagle": [0.1831769, 0.1826499, 0.8774979], "includesElement__electronegativity_pauling": [0.93, 0.98, 3.04], "includesElement__electronegativity_sanderson": [0.09459764, 0.04886793, 0.577482], "includesElement__en_ghosh": [0.093214, 0.105093, 0.26493], "includesElement__en_pauling": [0.93, 0.98, 3.04], "includesElement__evaporation_heat": [97.9, 148.0], "includesElement__fusion_heat": [2.64, 2.89], "includesElement__glawe_number": [11, 12, 88], "includesElement__group_id": [1, 15], "includesElement__heat_of_formation": [107.5, 159.3, 472.44], "includesElement__is_radioactive": [false], "includesElement__lattice_constant": [4.23, 3.49, 4.039], "includesElement__mendeleev_number": [2, 1, 93], "includesElement__molar_heat_capacity": [28.23, 24.86, 29.124], "includesElement__period": [3, 2], "includesElement__pettifor_number": [11, 12, 100], "includesElement__specific_heat_capacity": [1.228, 3.582, 1.04], "includesElement__vdw_radius": [227.0, 182.0, 155.0], "includesElement__vdw_radius_alvarez": [250.0, 212.0, 166.0], "includesElement__vdw_radius_mm3": [270.0, 255.0, 193.0], "includesElement__vdw_radius_uff": [298.3, 245.1, 366.0], "includesElement__abundance_sea": [10800.0, 0.18, 0.5], "includesElement__atomic_weight_uncertainty": [2e-08], "includesElement__c6_gb": [1570.0, 1410.0, 25.7], "includesElement__covalent_radius_bragg": [177.0, 150.0, 65.0], "includesElement__electronegativity_allen": [5.14, 5.392, 18.13], "includesElement__en_allen": [5.14, 5.392, 18.13], "includesElement__metallic_radius": [157.0, 123.0], "includesElement__metallic_radius_c12": [190.0, 155.0, 53.0], "includesElement__thermal_conductivity": [142.0, 84.8, 0.026], "includesElement__vdw_radius_batsanov": [240.0, 220.0, 160.0], "includesElement__c6": [1518.0, 1392.0, 24.2], "includesElement__is_monoisotopic": [true], "includesElement__vdw_radius_bondi": [227.0, 181.0, 155.0], "includesElement__covalent_radius_pyykko_triple": [54.0], "includesElement__vdw_radius_dreiding": [366.21], "includesElement__gas_basicity": [318.7], "includesElement__proton_affinity": [342.2], "includesElement__vdw_radius_rt": [164.0], "formula": ["Li5N2Na1"], "spacegroup": ["123"], "thermalConductivity": [2.01148], "icsd": ["92313"], "band_gap": [2.6507], "density": [1.982991], "density_atomic": [8.971409], "deprecated": [false], "efermi": [2.476404], "energy_above_hull": [0.2483516], "energy_per_atom": [-4.38233], "formation_energy_per_atom": [-0.1629281], "is_gap_direct": [false], "is_magnetic": [false], "is_metal": [false], "is_stable": [false], "nelements": [3], "nsites": [8], "num_magnetic_sites": [0], "num_unique_magnetic_sites": [0], "theoretical": [true], "total_magnetization": [0.0004232], "total_magnetization_normalized_formula_units": [0.0004232], "total_magnetization_normalized_vol": [5.89651e-06], "uncorrected_energy_per_atom": [-3.505218], "volume": [71.77127], "cbm": [4.9473], "vbm": [2.2966]}