{"includesElement": ["", "O", "K", "Os"], "includesElement___series_id": [1, 3, 8], "includesElement__abundance_crust": [461000.0, 20900.0, 0.0015], "includesElement__atomic_number": [8, 19, 76], "includesElement__atomic_radius": [60.0, 220.0, 130.0], "includesElement__atomic_radius_rahm": [171.0, 234.0, 244.0], "includesElement__atomic_volume": [14.0, 45.3, 8.43], "includesElement__atomic_weight": [15.999, 39.0983, 190.23], "includesElement__covalent_radius_cordero": [66.0, 203.0, 144.0], "includesElement__covalent_radius_pyykko": [63.0, 196.0, 129.0], "includesElement__covalent_radius_pyykko_double": [57.0, 193.0, 116.0], "includesElement__covalent_radius_pyykko_triple": [53.0, 109.0], "includesElement__density": [0.001308, 0.89, 22.5872], "includesElement__dipole_polarizability": [5.3, 289.7, 57.0], "includesElement__dipole_polarizability_unc": [0.2, 0.3, 3.0], "includesElement__discovery_year": [1774, 1807, 1804], "includesElement__electron_affinity": [1.461113, 0.50147, 1.1], "includesElement__electronegativity_allred-rochow": [0.001146384, 5.726781e-05, 0.000225347], "includesElement__electronegativity_cottrell-sutton": [0.2687419, 0.1059457, 0.1704986], "includesElement__electronegativity_ghosh": [0.304575, 0.0981896, 0.2479845], "includesElement__electronegativity_gordy": [0.07222222, 0.01122449, 0.02906977], "includesElement__electronegativity_mulliken": [7.539584, 2.421067, 4.769115], "includesElement__electronegativity_nagle": [1.042218, 0.1511299, 0.5196828], "includesElement__electronegativity_pauling": [3.44, 0.82, 2.2], "includesElement__electronegativity_sanderson": [0.9416494, 0.1218383, 1.239276], "includesElement__en_ghosh": [0.304575, 0.0981896, 0.2479845], "includesElement__en_pauling": [3.44, 0.82, 2.2], "includesElement__glawe_number": [97, 10, 60], "includesElement__group_id": [16, 1, 8], "includesElement__heat_of_formation": [249.229, 89.0, 787.0], "includesElement__is_radioactive": [false], "includesElement__lattice_constant": [6.83, 5.23, 2.74], "includesElement__mendeleev_number": [99, 3, 61], "includesElement__molar_heat_capacity": [29.378, 29.6, 24.7], "includesElement__period": [2, 4, 6], "includesElement__pettifor_number": [101, 10, 62], "includesElement__specific_heat_capacity": [0.918, 0.757, 0.13], "includesElement__vdw_radius": [152.0, 275.0, 216.0], "includesElement__vdw_radius_alvarez": [150.0, 273.0, 248.0], "includesElement__vdw_radius_mm3": [182.0, 309.0, 235.0], "includesElement__vdw_radius_uff": [350.0, 381.2, 312.0], "includesElement__abundance_sea": [857000.0, 399.0], "includesElement__c6_gb": [16.7, 3910.0, 584.0], "includesElement__covalent_radius_bragg": [65.0, 207.0], "includesElement__electronegativity_allen": [21.36, 4.34, 9.78], "includesElement__en_allen": [21.36, 4.34, 9.78], "includesElement__thermal_conductivity": [0.027, 79.0], "includesElement__vdw_radius_batsanov": [155.0, 280.0, 200.0], "includesElement__c6": [15.6, 3923.0], "includesElement__vdw_radius_dreiding": [340.46], "includesElement__gas_basicity": [459.6], "includesElement__proton_affinity": [485.2], "includesElement__vdw_radius_bondi": [152.0, 275.0], "includesElement__vdw_radius_rt": [158.0], "includesElement__evaporation_heat": [2.33, 738.0], "includesElement__fusion_heat": [102.5, 31.7], "includesElement__atomic_weight_uncertainty": [0.0001, 0.03], "includesElement__metallic_radius": [203.0, 126.0], "includesElement__metallic_radius_c12": [235.0, 135.0], "formula": ["K2O12Os4"], "spacegroup": ["227"], "thermalConductivity": [7.51321], "icsd": ["155495"], "band_gap": [0.0], "density": [6.575931], "density_atomic": [14.46519], "deprecated": [false], "efermi": [2.296659], "energy_above_hull": [0.03766377], "energy_per_atom": [-7.537597], "formation_energy_per_atom": [-1.61541], "is_gap_direct": [false], "is_magnetic": [false], "is_metal": [true], "is_stable": [false], "nelements": [3], "nsites": [18], "num_magnetic_sites": [0], "num_unique_magnetic_sites": [0], "theoretical": [false], "total_magnetization": [1.4e-06], "total_magnetization_normalized_formula_units": [7e-07], "total_magnetization_normalized_vol": [5.376893e-09], "uncorrected_energy_per_atom": [-17.67507], "volume": [260.3734]}