{"includesElement": ["", "Ni", "Si", "B"], "includesElement___series_id": [8, 5], "includesElement__abundance_crust": [84.0, 282000.0, 10.0], "includesElement__atomic_number": [28, 14, 5], "includesElement__atomic_radius": [135.0, 110.0, 85.0], "includesElement__atomic_radius_rahm": [229.0, 232.0, 205.0], "includesElement__atomic_volume": [6.6, 12.1, 4.6], "includesElement__atomic_weight": [58.6934, 28.085, 10.81], "includesElement__covalent_radius_cordero": [124.0, 111.0, 84.0], "includesElement__covalent_radius_pyykko": [110.0, 116.0, 85.0], "includesElement__covalent_radius_pyykko_double": [101.0, 107.0, 78.0], "includesElement__covalent_radius_pyykko_triple": [101.0, 102.0, 73.0], "includesElement__density": [8.9, 2.3296, 2.34], "includesElement__dipole_polarizability": [49.0, 37.3, 20.5], "includesElement__dipole_polarizability_unc": [3.0, 0.7, 0.1], "includesElement__discovery_year": [1751, 1824, 1808], "includesElement__electron_affinity": [1.156, 1.389521, 0.279723], "includesElement__electronegativity_allred-rochow": [0.0003347107, 0.0003084126, 0.0003598616], "includesElement__electronegativity_cottrell-sutton": [0.1918806, 0.1891451, 0.1748949], "includesElement__electronegativity_ghosh": [0.1472068, 0.178503, 0.184886], "includesElement__electronegativity_gordy": [0.03681818, 0.03577586, 0.03058824], "includesElement__electronegativity_mulliken": [4.397939, 4.770602, 4.288871], "includesElement__electronegativity_nagle": [0.588755, 0.4750986, 0.5269739], "includesElement__electronegativity_pauling": [1.91, 1.9, 2.04], "includesElement__electronegativity_sanderson": [0.937704, 0.3468158, 0.2546274], "includesElement__en_ghosh": [0.1472068, 0.178503, 0.184886], "includesElement__en_pauling": [1.91, 1.9, 2.04], "includesElement__evaporation_heat": [378.6, 383.0, 504.5], "includesElement__fusion_heat": [17.61, 50.6, 23.6], "includesElement__glawe_number": [69, 85, 86], "includesElement__group_id": [10, 14, 13], "includesElement__heat_of_formation": [430.1, 450.0, 565.0], "includesElement__is_radioactive": [false], "includesElement__lattice_constant": [3.52, 5.43, 8.73], "includesElement__mendeleev_number": [67, 88, 81], "includesElement__molar_heat_capacity": [26.07, 19.99, 11.087], "includesElement__period": [4, 3, 2], "includesElement__pettifor_number": [67, 85, 86], "includesElement__specific_heat_capacity": [0.444, 0.712, 1.026], "includesElement__vdw_radius": [197.0, 210.0, 192.0], "includesElement__vdw_radius_alvarez": [240.0, 219.0, 191.0], "includesElement__vdw_radius_mm3": [222.0, 229.0, 215.0], "includesElement__vdw_radius_uff": [283.4, 429.5, 408.3], "includesElement__abundance_sea": [0.00056, 2.2, 4.44], "includesElement__atomic_weight_uncertainty": [0.0004], "includesElement__c6_gb": [393.0, 308.0, 99.2], "includesElement__covalent_radius_bragg": [135.0, 117.0], "includesElement__electronegativity_allen": [11.13, 11.33, 12.13], "includesElement__en_allen": [11.13, 11.33, 12.13], "includesElement__metallic_radius": [115.0, 117.0, 80.0], "includesElement__metallic_radius_c12": [124.0, 138.0, 98.0], "includesElement__thermal_conductivity": [90.9, 149.0, 27.4], "includesElement__vdw_radius_batsanov": [200.0, 210.0, 180.0], "includesElement__c6": [373.0, 305.0, 99.5], "includesElement__gas_basicity": [714.1, 814.1], "includesElement__proton_affinity": [737.0, 837.0], "includesElement__vdw_radius_dreiding": [427.0, 402.0], "includesElement__vdw_radius_bondi": [210.0], "includesElement__vdw_radius_truhlar": [192.0], "formula": ["B1Ni6Si2"], "spacegroup": ["189"], "thermalConductivity": [5.82174], "icsd": ["185117"], "band_gap": [0.0], "density": [7.74255], "density_atomic": [9.988129], "deprecated": [false], "efermi": [9.206957], "energy_above_hull": [0.0], "energy_per_atom": [-11.21463], "formation_energy_per_atom": [-0.4608306], "homogeneous_poisson": [0.335], "is_gap_direct": [false], "is_magnetic": [false], "is_metal": [true], "is_stable": [true], "nelements": [3], "nsites": [9], "num_magnetic_sites": [0], "num_unique_magnetic_sites": [0], "theoretical": [false], "total_magnetization": [0.0], "total_magnetization_normalized_formula_units": [0.0], "total_magnetization_normalized_vol": [0.0], "uncorrected_energy_per_atom": [-11.21463], "universal_anisotropy": [1.743], "volume": [89.89316], "equilibrium_reaction_energy_per_atom": [-0.01730535]}