{"includesElement": ["", "Be", "Zr"], "includesElement___series_id": [4, 8], "includesElement__abundance_crust": [2.8, 165.0], "includesElement__atomic_number": [4, 40], "includesElement__atomic_radius": [105.0, 155.0], "includesElement__atomic_radius_rahm": [219.0, 269.0], "includesElement__atomic_volume": [5.0, 14.1], "includesElement__atomic_weight": [9.012183, 91.224], "includesElement__covalent_radius_cordero": [96.0, 175.0], "includesElement__covalent_radius_pyykko": [102.0, 154.0], "includesElement__covalent_radius_pyykko_double": [90.0, 127.0], "includesElement__covalent_radius_pyykko_triple": [85.0, 121.0], "includesElement__density": [1.85, 6.52], "includesElement__dipole_polarizability": [37.74, 112.0], "includesElement__dipole_polarizability_unc": [0.03, 13.0], "includesElement__discovery_year": [1798, 1789], "includesElement__electron_affinity": [-2.4, 0.426], "includesElement__electronegativity_allred-rochow": [0.0001874279, 0.0001328217], "includesElement__electronegativity_cottrell-sutton": [0.1382666, 0.1430194], "includesElement__electronegativity_ghosh": [0.144986, 0.1248887], "includesElement__electronegativity_gordy": [0.01911765, 0.02045455], "includesElement__electronegativity_mulliken": [3.461349, 3.52995], "includesElement__electronegativity_nagle": [0.3756148, 0.3293169], "includesElement__electronegativity_pauling": [1.57, 1.33], "includesElement__electronegativity_sanderson": [0.1268473, 0.4744467], "includesElement__en_ghosh": [0.144986, 0.1248887], "includesElement__en_pauling": [1.57, 1.33], "includesElement__evaporation_heat": [309.0, 567.0], "includesElement__fusion_heat": [12.21, 19.2], "includesElement__glawe_number": [77, 49], "includesElement__group_id": [2, 4], "includesElement__heat_of_formation": [324.0, 610.0], "includesElement__is_radioactive": [false], "includesElement__lattice_constant": [2.29, 3.23], "includesElement__mendeleev_number": [75, 44], "includesElement__molar_heat_capacity": [16.443, 25.36], "includesElement__period": [2, 5], "includesElement__pettifor_number": [77, 49], "includesElement__specific_heat_capacity": [1.825, 0.278], "includesElement__vdw_radius": [153.0, 223.0], "includesElement__vdw_radius_alvarez": [198.0, 252.0], "includesElement__vdw_radius_mm3": [223.0, 254.0], "includesElement__vdw_radius_uff": [274.5, 312.4], "includesElement__abundance_sea": [5.6e-06, 3e-05], "includesElement__atomic_weight_uncertainty": [5e-07, 0.002], "includesElement__c6_gb": [214.0, 1360.0], "includesElement__covalent_radius_bragg": [115.0], "includesElement__electronegativity_allen": [9.323, 7.808], "includesElement__en_allen": [9.323, 7.808], "includesElement__metallic_radius": [89.0, 145.0], "includesElement__metallic_radius_c12": [112.0, 160.0], "includesElement__thermal_conductivity": [201.0, 22.7], "includesElement__vdw_radius_batsanov": [190.0, 230.0], "includesElement__c6": [227.0], "includesElement__is_monoisotopic": [true], "includesElement__vdw_radius_truhlar": [153.0], "formula": ["Be26Zr2"], "spacegroup": ["226"], "thermalConductivity": [16.0662], "icsd": ["58758"], "band_gap": [0.0], "density": [2.763015], "density_atomic": [8.945381], "deprecated": [false], "efermi": [4.435563], "energy_above_hull": [0.0], "energy_per_atom": [-4.28093], "formation_energy_per_atom": [-0.1980679], "is_gap_direct": [false], "is_magnetic": [false], "is_metal": [true], "is_stable": [true], "nelements": [2], "nsites": [28], "num_magnetic_sites": [0], "num_unique_magnetic_sites": [0], "theoretical": [false], "total_magnetization": [8e-07], "total_magnetization_normalized_formula_units": [4e-07], "total_magnetization_normalized_vol": [3.193987e-09], "uncorrected_energy_per_atom": [-5.862886], "volume": [250.4707], "equilibrium_reaction_energy_per_atom": [-0.03707626]}