{"includesElement": ["", "As", "B"], "includesElement___series_id": [5], "includesElement__abundance_crust": [1.8, 10.0], "includesElement__atomic_number": [33, 5], "includesElement__atomic_radius": [115.0, 85.0], "includesElement__atomic_radius_rahm": [231.0, 205.0], "includesElement__atomic_volume": [13.1, 4.6], "includesElement__atomic_weight": [74.92159, 10.81], "includesElement__covalent_radius_cordero": [119.0, 84.0], "includesElement__covalent_radius_pyykko": [121.0, 85.0], "includesElement__covalent_radius_pyykko_double": [114.0, 78.0], "includesElement__covalent_radius_pyykko_triple": [106.0, 73.0], "includesElement__density": [5.75, 2.34], "includesElement__dipole_polarizability": [30.0, 20.5], "includesElement__dipole_polarizability_unc": [1.0, 0.1], "includesElement__electron_affinity": [0.804, 0.279723], "includesElement__electronegativity_allred-rochow": [0.0004302985, 0.0003598616], "includesElement__electronegativity_cottrell-sutton": [0.22818, 0.1748949], "includesElement__electronegativity_ghosh": [0.2068208, 0.184886], "includesElement__electronegativity_gordy": [0.05206612, 0.03058824], "includesElement__electronegativity_mulliken": [5.2965, 4.288871], "includesElement__electronegativity_nagle": [0.5503212, 0.5269739], "includesElement__electronegativity_pauling": [2.18, 2.04], "includesElement__electronegativity_sanderson": [0.8253373, 0.2546274], "includesElement__en_ghosh": [0.2068208, 0.184886], "includesElement__en_pauling": [2.18, 2.04], "includesElement__evaporation_heat": [32.4, 504.5], "includesElement__glawe_number": [90, 86], "includesElement__group_id": [15, 13], "includesElement__heat_of_formation": [302.5, 565.0], "includesElement__is_radioactive": [false], "includesElement__lattice_constant": [4.13, 8.73], "includesElement__mendeleev_number": [95, 81], "includesElement__molar_heat_capacity": [24.64, 11.087], "includesElement__period": [4, 2], "includesElement__pettifor_number": [89, 86], "includesElement__specific_heat_capacity": [0.329, 1.026], "includesElement__vdw_radius": [185.0, 192.0], "includesElement__vdw_radius_alvarez": [188.0, 191.0], "includesElement__vdw_radius_mm3": [236.0, 215.0], "includesElement__vdw_radius_uff": [423.0, 408.3], "includesElement__abundance_sea": [0.0037, 4.44], "includesElement__atomic_weight_uncertainty": [6e-06], "includesElement__c6_gb": [260.0, 99.2], "includesElement__covalent_radius_bragg": [126.0], "includesElement__electronegativity_allen": [13.08, 12.13], "includesElement__en_allen": [13.08, 12.13], "includesElement__metallic_radius": [121.0, 80.0], "includesElement__metallic_radius_c12": [148.0, 98.0], "includesElement__vdw_radius_batsanov": [205.0, 180.0], "includesElement__c6": [246.0, 99.5], "includesElement__is_monoisotopic": [true], "includesElement__vdw_radius_dreiding": [415.0, 402.0], "includesElement__vdw_radius_bondi": [185.0], "includesElement__discovery_year": [1808], "includesElement__fusion_heat": [23.6], "includesElement__thermal_conductivity": [27.4], "includesElement__vdw_radius_truhlar": [192.0], "formula": ["As1B1", "AsB"], "mp_id": ["mp-10044"], "spacegroup": ["216"], "thermalConductivity": [47.6931, 1577.678, 3398.696], "icsd": ["181292"], "band_gap": [1.2037], "density": [5.087631], "density_atomic": [13.99102], "deprecated": [false], "efermi": [5.923256], "energy_above_hull": [0.08038977], "energy_per_atom": [-11.06858], "formation_energy_per_atom": [-0.04163711], "homogeneous_poisson": [0.14], "is_gap_direct": [false], "is_magnetic": [false], "is_metal": [false], "is_stable": [false], "nelements": [2], "nsites": [2], "num_magnetic_sites": [0], "num_unique_magnetic_sites": [0], "theoretical": [false], "total_magnetization": [0.0015859], "total_magnetization_normalized_formula_units": [0.0015859], "total_magnetization_normalized_vol": [5.667563e-05], "uncorrected_energy_per_atom": [-5.688215], "universal_anisotropy": [0.153], "volume": [27.98205], "cbm": [7.0741], "e_electronic": [9.854783], "e_ionic": [0.08446089], "e_total": [9.939244], "n": [3.139233], "vbm": [5.8704], "e_ij_max": [0.04810667]}