{"includesElement": ["", "F", "Yb", "Cs"], "includesElement___series_id": [6, 9, 3], "includesElement__abundance_crust": [585.0, 3.2, 3.0], "includesElement__atomic_number": [9, 70, 55], "includesElement__atomic_radius": [50.0, 175.0, 260.0], "includesElement__atomic_radius_rahm": [163.0, 277.0, 249.0], "includesElement__atomic_volume": [17.1, 24.8, 70.0], "includesElement__atomic_weight": [18.9984, 173.045, 132.9055], "includesElement__covalent_radius_cordero": [57.0, 187.0, 244.0], "includesElement__covalent_radius_pyykko": [64.0, 170.0, 232.0], "includesElement__covalent_radius_pyykko_double": [59.0, 129.0, 209.0], "includesElement__covalent_radius_pyykko_triple": [53.0], "includesElement__density": [0.001553, 6.9, 1.873], "includesElement__dipole_polarizability": [3.74, 139.0, 400.9], "includesElement__dipole_polarizability_unc": [0.08, 6.0, 0.7], "includesElement__discovery_year": [1886, 1878, 1860], "includesElement__electron_affinity": [3.40119, -0.02, 0.471626], "includesElement__electronegativity_allred-rochow": [0.001269531, 9.861592e-05, 4.087396e-05], "includesElement__electronegativity_cottrell-sutton": [0.2850439, 0.1294786, 0.09737946], "includesElement__electronegativity_ghosh": [0.344443, 0.22119, 0.1542125], "includesElement__electronegativity_gordy": [0.08125, 0.01676471, 0.009482759], "includesElement__electronegativity_mulliken": [10.412, 3.11708, 2.182766], "includesElement__electronegativity_nagle": [1.232373, 0.4864465, 0.1356192], "includesElement__electronegativity_pauling": [3.98, 0.79], "includesElement__electronegativity_sanderson": [1.017681, 0.5176678, 0.1814531], "includesElement__en_ghosh": [0.344443, 0.22119, 0.1542125], "includesElement__en_pauling": [3.98, 0.79], "includesElement__evaporation_heat": [6.54, 159.0, 68.3], "includesElement__fusion_heat": [0.51, 3.35, 2.09], "includesElement__glawe_number": [102, 18, 8], "includesElement__group_id": [17, 1], "includesElement__heat_of_formation": [79.335, 155.6, 76.5], "includesElement__is_radioactive": [false], "includesElement__mendeleev_number": [106, 39, 5], "includesElement__molar_heat_capacity": [31.304, 26.74, 32.21], "includesElement__period": [2, 6], "includesElement__pettifor_number": [102, 17, 8], "includesElement__specific_heat_capacity": [0.824, 0.155, 0.242], "includesElement__vdw_radius": [147.0, 226.0, 343.0], "includesElement__vdw_radius_alvarez": [146.0, 280.0, 348.0], "includesElement__vdw_radius_mm3": [171.0, 279.0, 344.0], "includesElement__vdw_radius_uff": [336.4, 335.5, 451.7], "includesElement__abundance_sea": [1.3, 8.2e-07, 0.0003], "includesElement__atomic_weight_uncertainty": [6e-09, 0.01, 6e-08], "includesElement__c6_gb": [10.2, 1910.0, 6660.0], "includesElement__covalent_radius_bragg": [67.0, 237.0], "includesElement__electronegativity_allen": [24.8, 3.898], "includesElement__en_allen": [24.8, 3.898], "includesElement__thermal_conductivity": [0.028, 35.9], "includesElement__vdw_radius_batsanov": [150.0, 300.0], "includesElement__c6": [9.52], "includesElement__is_monoisotopic": [true], "includesElement__vdw_radius_dreiding": [347.2], "includesElement__gas_basicity": [315.1], "includesElement__proton_affinity": [340.1], "includesElement__vdw_radius_bondi": [147.0], "includesElement__vdw_radius_rt": [146.0], "includesElement__lattice_constant": [5.49, 6.05], "includesElement__metallic_radius": [235.0], "includesElement__metallic_radius_c12": [267.0], "includesElement__vdw_radius_truhlar": [343.0], "formula": ["Cs1F3Yb1"], "spacegroup": ["221"], "thermalConductivity": [2.04399], "icsd": ["49579"], "band_gap": [7.0604], "density": [6.575144], "density_atomic": [18.33198], "deprecated": [false], "efermi": [-1.933444], "homogeneous_poisson": [0.261], "is_gap_direct": [true], "is_magnetic": [false], "is_metal": [false], "is_stable": [false], "nelements": [3], "nsites": [5], "num_magnetic_sites": [0], "num_unique_magnetic_sites": [0], "theoretical": [false], "total_magnetization": [0.0001119], "total_magnetization_normalized_formula_units": [0.0001119], "total_magnetization_normalized_vol": [1.220817e-06], "universal_anisotropy": [0.298], "volume": [91.65991], "cbm": [4.9874], "vbm": [-2.073]}