{"includesElement": ["", "Sn", "Ag", "Sr"], "includesElement___series_id": [7, 8, 4], "includesElement__abundance_crust": [2.3, 0.075, 370.0], "includesElement__atomic_number": [50, 47, 38], "includesElement__atomic_radius": [145.0, 160.0, 200.0], "includesElement__atomic_radius_rahm": [248.0, 225.0, 279.0], "includesElement__atomic_volume": [16.3, 10.3, 33.7], "includesElement__atomic_weight": [118.71, 107.8682, 87.62], "includesElement__covalent_radius_cordero": [139.0, 145.0, 195.0], "includesElement__covalent_radius_pyykko": [140.0, 128.0, 185.0], "includesElement__covalent_radius_pyykko_double": [130.0, 139.0, 157.0], "includesElement__covalent_radius_pyykko_triple": [132.0, 137.0, 139.0], "includesElement__density": [7.287, 10.5, 2.64], "includesElement__dipole_polarizability": [53.0, 55.0, 197.2], "includesElement__dipole_polarizability_unc": [6.0, 8.0, 0.2], "includesElement__electron_affinity": [1.112067, 1.302, 0.048], "includesElement__electronegativity_allred-rochow": [0.0002882653, 0.0002258301, 8.327246e-05], "includesElement__electronegativity_cottrell-sutton": [0.2008909, 0.1700184, 0.1241185], "includesElement__electronegativity_ghosh": [0.178052, 0.1472165, 0.1185082], "includesElement__electronegativity_gordy": [0.04035714, 0.02890625, 0.01540541], "includesElement__electronegativity_mulliken": [4.227992, 4.439117, 2.871434], "includesElement__electronegativity_nagle": [0.4225986, 0.5848035, 0.2164584], "includesElement__electronegativity_pauling": [1.96, 1.93, 0.95], "includesElement__electronegativity_sanderson": [0.7622797, 0.9437955, 0.2631786], "includesElement__en_ghosh": [0.178052, 0.1472165, 0.1185082], "includesElement__en_pauling": [1.96, 1.93, 0.95], "includesElement__evaporation_heat": [296.0, 254.1, 144.0], "includesElement__fusion_heat": [7.07, 11.95, 9.2], "includesElement__glawe_number": [83, 67, 15], "includesElement__group_id": [14, 11, 2], "includesElement__heat_of_formation": [301.2, 284.9, 164.0], "includesElement__is_radioactive": [false], "includesElement__lattice_constant": [5.82, 4.09, 6.08], "includesElement__mendeleev_number": [90, 72, 8], "includesElement__molar_heat_capacity": [26.99, 25.35, 26.79], "includesElement__period": [5], "includesElement__pettifor_number": [83, 71, 15], "includesElement__specific_heat_capacity": [0.227, 0.235, 0.306], "includesElement__vdw_radius": [217.0, 211.0, 249.0], "includesElement__vdw_radius_alvarez": [242.0, 253.0, 284.0], "includesElement__vdw_radius_mm3": [259.0, 243.0, 300.0], "includesElement__vdw_radius_uff": [439.2, 314.8, 364.1], "includesElement__abundance_sea": [4e-06, 4e-05, 7.9], "includesElement__atomic_weight_uncertainty": [0.007, 0.0002, 0.01], "includesElement__c6_gb": [715.0, 341.0, 3230.0], "includesElement__covalent_radius_bragg": [140.0, 177.0, 195.0], "includesElement__electronegativity_allen": [10.79, 11.05, 5.695], "includesElement__en_allen": [10.79, 11.05, 5.695], "includesElement__metallic_radius": [142.0, 134.0, 191.0], "includesElement__metallic_radius_c12": [163.0, 144.0, 215.0], "includesElement__thermal_conductivity": [66.8, 429.0], "includesElement__vdw_radius_batsanov": [225.0, 210.0, 255.0], "includesElement__c6": [659.0, 3175.0], "includesElement__vdw_radius_dreiding": [447.0], "includesElement__vdw_radius_bondi": [217.0], "includesElement__discovery_year": [1790], "includesElement__vdw_radius_truhlar": [249.0], "formula": ["Ag2Sn2Sr1"], "spacegroup": ["139"], "thermalConductivity": [1.08503], "icsd": ["414"], "band_gap": [0.0], "density": [6.97514], "density_atomic": [25.74802], "deprecated": [false], "efermi": [4.89973], "energy_above_hull": [0.0], "energy_per_atom": [-21.84269], "formation_energy_per_atom": [-0.3727331], "homogeneous_poisson": [-0.285], "is_gap_direct": [false], "is_magnetic": [false], "is_metal": [true], "is_stable": [true], "nelements": [3], "nsites": [5], "num_magnetic_sites": [0], "num_unique_magnetic_sites": [0], "theoretical": [false], "total_magnetization": [1e-07], "total_magnetization_normalized_formula_units": [1e-07], "total_magnetization_normalized_vol": [7.767586e-10], "uncorrected_energy_per_atom": [-21.84269], "universal_anisotropy": [-4.872], "volume": [128.7401], "equilibrium_reaction_energy_per_atom": [-0.04377681]}