{"includesElement": ["", "Ni", "Sb", "Sc"], "includesElement___series_id": [8, 5], "includesElement__abundance_crust": [84.0, 0.2, 22.0], "includesElement__atomic_number": [28, 51, 21], "includesElement__atomic_radius": [135.0, 145.0, 160.0], "includesElement__atomic_radius_rahm": [229.0, 246.0, 263.0], "includesElement__atomic_volume": [6.6, 18.4, 15.0], "includesElement__atomic_weight": [58.6934, 121.76, 44.95591], "includesElement__covalent_radius_cordero": [124.0, 139.0, 170.0], "includesElement__covalent_radius_pyykko": [110.0, 140.0, 148.0], "includesElement__covalent_radius_pyykko_double": [101.0, 133.0, 116.0], "includesElement__covalent_radius_pyykko_triple": [101.0, 127.0, 114.0], "includesElement__density": [8.9, 6.68, 2.99], "includesElement__dipole_polarizability": [49.0, 43.0, 97.0], "includesElement__dipole_polarizability_unc": [3.0, 2.0, 10.0], "includesElement__discovery_year": [1751, 1879], "includesElement__electron_affinity": [1.156, 1.046, 0.188], "includesElement__electronegativity_allred-rochow": [0.0003347107, 0.0003214286, 0.0001369613], "includesElement__electronegativity_cottrell-sutton": [0.1918806, 0.212132, 0.1423737], "includesElement__electronegativity_ghosh": [0.1472068, 0.1918774, 0.1193833], "includesElement__electronegativity_gordy": [0.03681818, 0.045, 0.02027027], "includesElement__electronegativity_mulliken": [4.397939, 4.827195, 3.374745], "includesElement__electronegativity_nagle": [0.588755, 0.4880907, 0.3138941], "includesElement__electronegativity_pauling": [1.91, 2.05, 1.36], "includesElement__electronegativity_sanderson": [0.937704, 0.7762722, 0.3038674], "includesElement__en_ghosh": [0.1472068, 0.1918774, 0.1193833], "includesElement__en_pauling": [1.91, 2.05, 1.36], "includesElement__evaporation_heat": [378.6, 195.2, 332.7], "includesElement__fusion_heat": [17.61, 20.08, 15.8], "includesElement__glawe_number": [69, 91, 48], "includesElement__group_id": [10, 15, 3], "includesElement__heat_of_formation": [430.1, 264.4, 377.8], "includesElement__is_radioactive": [false], "includesElement__lattice_constant": [3.52, 4.51, 3.31], "includesElement__mendeleev_number": [67, 96, 11], "includesElement__molar_heat_capacity": [26.07, 25.23, 25.52], "includesElement__period": [4, 5], "includesElement__pettifor_number": [67, 88, 20], "includesElement__specific_heat_capacity": [0.444, 0.207, 0.568], "includesElement__vdw_radius": [197.0, 206.0, 215.0], "includesElement__vdw_radius_alvarez": [240.0, 247.0, 258.0], "includesElement__vdw_radius_mm3": [222.0, 252.0, 261.0], "includesElement__vdw_radius_uff": [283.4, 442.0, 329.5], "includesElement__abundance_sea": [0.00056, 0.00024, 6e-07], "includesElement__atomic_weight_uncertainty": [0.0004, 0.001, 5e-06], "includesElement__c6_gb": [393.0, 504.0, 1570.0], "includesElement__covalent_radius_bragg": [135.0, 140.0], "includesElement__electronegativity_allen": [11.13, 11.74, 7.042], "includesElement__en_allen": [11.13, 11.74, 7.042], "includesElement__metallic_radius": [115.0, 139.0, 144.0], "includesElement__metallic_radius_c12": [124.0, 166.0, 162.0], "includesElement__thermal_conductivity": [90.9, 24.43, 15.8], "includesElement__vdw_radius_batsanov": [200.0, 220.0, 230.0], "includesElement__c6": [373.0, 492.0, 1383.0], "includesElement__gas_basicity": [714.1, 892.0], "includesElement__proton_affinity": [737.0, 914.0], "includesElement__vdw_radius_dreiding": [435.0], "includesElement__vdw_radius_truhlar": [206.0], "includesElement__is_monoisotopic": [true], "formula": ["Ni1Sb1Sc1", "ScNiSb"], "mp_id": ["3432"], "spacegroup": ["216"], "thermalConductivity": [11.3982, 13.91], "icsd": ["40296"], "band_gap": [0.2679], "density": [6.652273], "density_atomic": [18.75554], "deprecated": [false], "efermi": [7.370977], "energy_above_hull": [0.0], "energy_per_atom": [-6.377463], "formation_energy_per_atom": [-0.9635939], "homogeneous_poisson": [0.235], "is_gap_direct": [false], "is_magnetic": [false], "is_metal": [false], "is_stable": [true], "nelements": [3], "nsites": [3], "num_magnetic_sites": [0], "num_unique_magnetic_sites": [0], "theoretical": [false], "total_magnetization": [0.0], "total_magnetization_normalized_formula_units": [0.0], "total_magnetization_normalized_vol": [0.0], "uncorrected_energy_per_atom": [-17.33231], "universal_anisotropy": [0.002], "volume": [56.26663], "cbm": [7.5942], "e_electronic": [18.34182], "e_ionic": [4.09996], "e_total": [22.44178], "equilibrium_reaction_energy_per_atom": [-0.2449901], "n": [4.282735], "vbm": [7.3263], "e_ij_max": [0.1830609]}