{"includesElement": ["", "Os", "Th"], "includesElement___series_id": [8, 10], "includesElement__abundance_crust": [0.0015, 9.6], "includesElement__atomic_number": [76, 90], "includesElement__atomic_radius": [130.0, 180.0], "includesElement__atomic_radius_rahm": [244.0, 288.0], "includesElement__atomic_volume": [8.43, 19.8], "includesElement__atomic_weight": [190.23, 232.0377], "includesElement__covalent_radius_cordero": [144.0, 206.0], "includesElement__covalent_radius_pyykko": [129.0, 175.0], "includesElement__covalent_radius_pyykko_double": [116.0, 143.0], "includesElement__covalent_radius_pyykko_triple": [109.0, 136.0], "includesElement__density": [22.5872, 11.7], "includesElement__dipole_polarizability": [57.0, 217.0], "includesElement__dipole_polarizability_unc": [3.0, 54.0], "includesElement__discovery_year": [1804, 1828], "includesElement__electron_affinity": [1.1], "includesElement__electronegativity_allred-rochow": [0.000225347, 0.0001028571], "includesElement__electronegativity_cottrell-sutton": [0.1704986, 0.1341641], "includesElement__electronegativity_ghosh": [0.2479845, 0.10277], "includesElement__electronegativity_gordy": [0.02906977, 0.018], "includesElement__electronegativity_mulliken": [4.769115, 3.15335], "includesElement__electronegativity_nagle": [0.5196828, 0.2641598], "includesElement__electronegativity_pauling": [2.2, 1.3], "includesElement__electronegativity_sanderson": [1.239276, 0.5557019], "includesElement__en_ghosh": [0.2479845, 0.10277], "includesElement__en_pauling": [2.2, 1.3], "includesElement__evaporation_heat": [738.0, 513.7], "includesElement__fusion_heat": [31.7, 16.11], "includesElement__glawe_number": [60, 34], "includesElement__group_id": [8], "includesElement__heat_of_formation": [787.0, 602.0], "includesElement__is_radioactive": [false, true], "includesElement__lattice_constant": [2.74, 5.08], "includesElement__mendeleev_number": [61, 16], "includesElement__molar_heat_capacity": [24.7, 27.32], "includesElement__period": [6, 7], "includesElement__pettifor_number": [62, 47], "includesElement__specific_heat_capacity": [0.13, 0.118], "includesElement__vdw_radius": [216.0, 245.0], "includesElement__vdw_radius_alvarez": [248.0, 293.0], "includesElement__vdw_radius_mm3": [235.0, 274.0], "includesElement__vdw_radius_uff": [312.0, 339.6], "includesElement__atomic_weight_uncertainty": [0.03, 0.0004], "includesElement__c6_gb": [584.0], "includesElement__electronegativity_allen": [9.78], "includesElement__en_allen": [9.78], "includesElement__metallic_radius": [126.0], "includesElement__metallic_radius_c12": [135.0], "includesElement__vdw_radius_batsanov": [200.0, 240.0], "includesElement__abundance_sea": [1e-06], "formula": ["Os6Th14"], "spacegroup": ["186"], "thermalConductivity": [1.32973], "icsd": ["150669"], "band_gap": [0.0], "density": [13.17994], "density_atomic": [27.65423], "deprecated": [false], "efermi": [7.456794], "energy_above_hull": [0.0], "energy_per_atom": [-67.70433], "formation_energy_per_atom": [-0.3760798], "is_gap_direct": [false], "is_magnetic": [false], "is_metal": [true], "is_stable": [true], "nelements": [2], "nsites": [20], "num_magnetic_sites": [0], "num_unique_magnetic_sites": [0], "theoretical": [false], "total_magnetization": [4e-07], "total_magnetization_normalized_formula_units": [2e-07], "total_magnetization_normalized_vol": [7.232167e-10], "uncorrected_energy_per_atom": [-67.70433], "volume": [553.0846], "equilibrium_reaction_energy_per_atom": [-0.2490438]}