{"includesElement": ["", "Ca", "F", "Cs"], "includesElement___series_id": [4, 6, 3], "includesElement__abundance_crust": [41500.0, 585.0, 3.0], "includesElement__atomic_number": [20, 9, 55], "includesElement__atomic_radius": [180.0, 50.0, 260.0], "includesElement__atomic_radius_rahm": [270.0, 163.0, 249.0], "includesElement__atomic_volume": [29.9, 17.1, 70.0], "includesElement__atomic_weight": [40.078, 18.9984, 132.9055], "includesElement__covalent_radius_cordero": [176.0, 57.0, 244.0], "includesElement__covalent_radius_pyykko": [171.0, 64.0, 232.0], "includesElement__covalent_radius_pyykko_double": [147.0, 59.0, 209.0], "includesElement__covalent_radius_pyykko_triple": [133.0, 53.0], "includesElement__density": [1.54, 0.001553, 1.873], "includesElement__dipole_polarizability": [160.8, 3.74, 400.9], "includesElement__dipole_polarizability_unc": [4.0, 0.08, 0.7], "includesElement__discovery_year": [1808, 1886, 1860], "includesElement__electron_affinity": [0.02455, 3.40119, 0.471626], "includesElement__electronegativity_allred-rochow": [9.746589e-05, 0.001269531, 4.087396e-05], "includesElement__electronegativity_cottrell-sutton": [0.1290994, 0.2850439, 0.09737946], "includesElement__electronegativity_ghosh": [0.1154119, 0.344443, 0.1542125], "includesElement__electronegativity_gordy": [0.01666667, 0.08125, 0.009482759], "includesElement__electronegativity_mulliken": [3.068853, 10.412, 2.182766], "includesElement__electronegativity_nagle": [0.2316939, 1.232373, 0.1356192], "includesElement__electronegativity_pauling": [1.0, 3.98, 0.79], "includesElement__electronegativity_sanderson": [0.1901577, 1.017681, 0.1814531], "includesElement__en_ghosh": [0.1154119, 0.344443, 0.1542125], "includesElement__en_pauling": [1.0, 3.98, 0.79], "includesElement__evaporation_heat": [153.6, 6.54, 68.3], "includesElement__fusion_heat": [9.2, 0.51, 2.09], "includesElement__glawe_number": [16, 102, 8], "includesElement__group_id": [2, 17, 1], "includesElement__heat_of_formation": [177.8, 79.335, 76.5], "includesElement__is_radioactive": [false], "includesElement__lattice_constant": [5.58, 6.05], "includesElement__mendeleev_number": [7, 106, 5], "includesElement__molar_heat_capacity": [25.929, 31.304, 32.21], "includesElement__period": [4, 2, 6], "includesElement__pettifor_number": [16, 102, 8], "includesElement__specific_heat_capacity": [0.647, 0.824, 0.242], "includesElement__vdw_radius": [231.0, 147.0, 343.0], "includesElement__vdw_radius_alvarez": [262.0, 146.0, 348.0], "includesElement__vdw_radius_mm3": [281.0, 171.0, 344.0], "includesElement__vdw_radius_uff": [339.9, 336.4, 451.7], "includesElement__abundance_sea": [412.0, 1.3, 0.0003], "includesElement__atomic_weight_uncertainty": [0.004, 6e-09, 6e-08], "includesElement__c6_gb": [2230.0, 10.2, 6660.0], "includesElement__covalent_radius_bragg": [170.0, 67.0, 237.0], "includesElement__electronegativity_allen": [6.113, 24.8, 3.898], "includesElement__en_allen": [6.113, 24.8, 3.898], "includesElement__metallic_radius": [174.0, 235.0], "includesElement__metallic_radius_c12": [197.0, 267.0], "includesElement__vdw_radius_batsanov": [240.0, 150.0, 300.0], "includesElement__c6": [2163.0, 9.52], "includesElement__vdw_radius_truhlar": [231.0, 343.0], "includesElement__thermal_conductivity": [0.028, 35.9], "includesElement__is_monoisotopic": [true], "includesElement__vdw_radius_dreiding": [347.2], "includesElement__gas_basicity": [315.1], "includesElement__proton_affinity": [340.1], "includesElement__vdw_radius_bondi": [147.0], "includesElement__vdw_radius_rt": [146.0], "formula": ["Ca1Cs1F3"], "spacegroup": ["221"], "thermalConductivity": [2.42221], "icsd": ["290340"], "band_gap": [6.9005], "density": [4.133979], "density_atomic": [18.47559], "deprecated": [false], "efermi": [-1.722635], "energy_above_hull": [0.0], "energy_per_atom": [-12.0208], "formation_energy_per_atom": [-3.719104], "homogeneous_poisson": [0.262], "is_gap_direct": [false], "is_magnetic": [false], "is_metal": [false], "is_stable": [true], "nelements": [3], "nsites": [5], "num_magnetic_sites": [0], "num_unique_magnetic_sites": [0], "theoretical": [false], "total_magnetization": [0.0], "total_magnetization_normalized_formula_units": [0.0], "total_magnetization_normalized_vol": [0.0], "uncorrected_energy_per_atom": [-12.0208], "universal_anisotropy": [0.199], "volume": [92.37796], "cbm": [5.1482], "e_electronic": [2.308064], "e_ionic": [6.893018], "e_total": [9.201082], "equilibrium_reaction_energy_per_atom": [-0.02134791], "n": [1.519231], "vbm": [-1.7523]}