{"includesElement": ["", "Ce", "Ir", "B"], "includesElement___series_id": [9, 8, 5], "includesElement__abundance_crust": [66.5, 0.001, 10.0], "includesElement__atomic_number": [58, 77, 5], "includesElement__atomic_radius": [185.0, 135.0, 85.0], "includesElement__atomic_radius_rahm": [282.0, 240.0, 205.0], "includesElement__atomic_volume": [21.0, 8.54, 4.6], "includesElement__atomic_weight": [140.116, 192.217, 10.81], "includesElement__covalent_radius_cordero": [204.0, 141.0, 84.0], "includesElement__covalent_radius_pyykko": [163.0, 122.0, 85.0], "includesElement__covalent_radius_pyykko_double": [137.0, 115.0, 78.0], "includesElement__covalent_radius_pyykko_triple": [131.0, 107.0, 73.0], "includesElement__density": [6.77, 22.5622, 2.34], "includesElement__dipole_polarizability": [205.0, 54.0, 20.5], "includesElement__dipole_polarizability_unc": [20.0, 7.0, 0.1], "includesElement__discovery_year": [1803, 1804, 1808], "includesElement__electron_affinity": [0.65, 1.5638, 0.279723], "includesElement__electronegativity_allred-rochow": [0.0001129135, 0.0002620263, 0.0003598616], "includesElement__electronegativity_cottrell-sutton": [0.1356647, 0.1787938, 0.1748949], "includesElement__electronegativity_ghosh": [0.16761, 0.25106, 0.184886], "includesElement__electronegativity_gordy": [0.01840491, 0.03196721, 0.03058824], "includesElement__electronegativity_mulliken": [3.0943, 5.26541, 4.288871], "includesElement__electronegativity_nagle": [0.2692167, 0.5503212, 0.5269739], "includesElement__electronegativity_pauling": [1.12, 2.2, 2.04], "includesElement__electronegativity_sanderson": [0.5356179, 1.475998, 0.2546274], "includesElement__en_ghosh": [0.16761, 0.25106, 0.184886], "includesElement__en_pauling": [1.12, 2.2, 2.04], "includesElement__evaporation_heat": [398.0, 604.0, 504.5], "includesElement__fusion_heat": [5.2, 27.61, 23.6], "includesElement__glawe_number": [31, 62, 86], "includesElement__heat_of_formation": [420.1, 669.0, 565.0], "includesElement__is_radioactive": [false], "includesElement__lattice_constant": [5.16, 3.84, 8.73], "includesElement__mendeleev_number": [15, 65, 81], "includesElement__molar_heat_capacity": [26.94, 25.1, 11.087], "includesElement__period": [6, 2], "includesElement__pettifor_number": [32, 65, 86], "includesElement__specific_heat_capacity": [0.192, 0.131, 1.026], "includesElement__vdw_radius": [242.0, 213.0, 192.0], "includesElement__vdw_radius_alvarez": [288.0, 241.0, 191.0], "includesElement__vdw_radius_mm3": [274.0, 236.0, 215.0], "includesElement__vdw_radius_uff": [355.6, 284.0, 408.3], "includesElement__abundance_sea": [1.2e-06, 4.44], "includesElement__atomic_weight_uncertainty": [0.001, 0.003], "includesElement__c6_gb": [3480.0, 522.0, 99.2], "includesElement__thermal_conductivity": [11.3, 147.0, 27.4], "includesElement__group_id": [9, 13], "includesElement__electronegativity_allen": [9.96, 12.13], "includesElement__en_allen": [9.96, 12.13], "includesElement__metallic_radius": [127.0, 80.0], "includesElement__metallic_radius_c12": [136.0, 98.0], "includesElement__vdw_radius_batsanov": [200.0, 180.0], "includesElement__c6": [99.5], "includesElement__vdw_radius_dreiding": [402.0], "includesElement__vdw_radius_truhlar": [192.0], "formula": ["B2Ce1Ir3"], "spacegroup": ["191"], "thermalConductivity": [9.95806], "icsd": ["97341"], "band_gap": [0.0], "density": [14.97009], "density_atomic": [13.65082], "deprecated": [false], "efermi": [9.248539], "energy_above_hull": [0.0], "energy_per_atom": [-8.307133], "formation_energy_per_atom": [-0.6719608], "homogeneous_poisson": [0.285], "is_gap_direct": [false], "is_magnetic": [true], "is_metal": [true], "is_stable": [true], "nelements": [3], "nsites": [6], "num_magnetic_sites": [1], "num_unique_magnetic_sites": [1], "theoretical": [false], "total_magnetization": [0.8225088], "total_magnetization_normalized_formula_units": [0.8225088], "total_magnetization_normalized_vol": [0.01004224], "uncorrected_energy_per_atom": [-34.53225], "universal_anisotropy": [0.623], "volume": [81.90491], "equilibrium_reaction_energy_per_atom": [-0.01221453]}