{"includesElement": ["", "Ni", "Bi", "Zr"], "includesElement___series_id": [8, 7], "includesElement__abundance_crust": [84.0, 0.0085, 165.0], "includesElement__atomic_number": [28, 83, 40], "includesElement__atomic_radius": [135.0, 160.0, 155.0], "includesElement__atomic_radius_rahm": [229.0, 250.0, 269.0], "includesElement__atomic_volume": [6.6, 21.3, 14.1], "includesElement__atomic_weight": [58.6934, 208.9804, 91.224], "includesElement__covalent_radius_cordero": [124.0, 148.0, 175.0], "includesElement__covalent_radius_pyykko": [110.0, 151.0, 154.0], "includesElement__covalent_radius_pyykko_double": [101.0, 141.0, 127.0], "includesElement__covalent_radius_pyykko_triple": [101.0, 135.0, 121.0], "includesElement__density": [8.9, 9.79, 6.52], "includesElement__dipole_polarizability": [49.0, 48.0, 112.0], "includesElement__dipole_polarizability_unc": [3.0, 4.0, 13.0], "includesElement__discovery_year": [1751, 1789], "includesElement__electron_affinity": [1.156, 0.942362, 0.426], "includesElement__electronegativity_allred-rochow": [0.0003347107, 0.0002763037, 0.0001328217], "includesElement__electronegativity_cottrell-sutton": [0.1918806, 0.2042593, 0.1430194], "includesElement__electronegativity_ghosh": [0.1472068, 0.182377, 0.1248887], "includesElement__electronegativity_gordy": [0.03681818, 0.04172185, 0.02045455], "includesElement__electronegativity_mulliken": [4.397939, 4.113939, 3.52995], "includesElement__electronegativity_nagle": [0.588755, 0.470518, 0.3293169], "includesElement__electronegativity_pauling": [1.91, 1.9, 1.33], "includesElement__electronegativity_sanderson": [0.937704, 0.8136501, 0.4744467], "includesElement__en_ghosh": [0.1472068, 0.182377, 0.1248887], "includesElement__en_pauling": [1.91, 1.9, 1.33], "includesElement__evaporation_heat": [378.6, 172.0, 567.0], "includesElement__fusion_heat": [17.61, 11.0, 19.2], "includesElement__glawe_number": [69, 92, 49], "includesElement__group_id": [10, 15, 4], "includesElement__heat_of_formation": [430.1, 209.6, 610.0], "includesElement__is_radioactive": [false], "includesElement__lattice_constant": [3.52, 4.75, 3.23], "includesElement__mendeleev_number": [67, 97, 44], "includesElement__molar_heat_capacity": [26.07, 25.52, 25.36], "includesElement__period": [4, 6, 5], "includesElement__pettifor_number": [67, 87, 49], "includesElement__specific_heat_capacity": [0.444, 0.122, 0.278], "includesElement__vdw_radius": [197.0, 207.0, 223.0], "includesElement__vdw_radius_alvarez": [240.0, 254.0, 252.0], "includesElement__vdw_radius_mm3": [222.0, 266.0, 254.0], "includesElement__vdw_radius_uff": [283.4, 437.0, 312.4], "includesElement__abundance_sea": [0.00056, 2e-05, 3e-05], "includesElement__atomic_weight_uncertainty": [0.0004, 1e-05, 0.002], "includesElement__c6_gb": [393.0, 513.0, 1360.0], "includesElement__covalent_radius_bragg": [135.0, 148.0], "includesElement__electronegativity_allen": [11.13, 11.9, 7.808], "includesElement__en_allen": [11.13, 11.9, 7.808], "includesElement__metallic_radius": [115.0, 151.0, 145.0], "includesElement__metallic_radius_c12": [124.0, 178.0, 160.0], "includesElement__thermal_conductivity": [90.9, 7.9, 22.7], "includesElement__vdw_radius_batsanov": [200.0, 230.0], "includesElement__c6": [373.0], "includesElement__gas_basicity": [714.1], "includesElement__proton_affinity": [737.0], "includesElement__is_monoisotopic": [true], "includesElement__vdw_radius_truhlar": [207.0], "formula": ["Bi1Ni1Zr1"], "spacegroup": ["216"], "thermalConductivity": [4.36209], "icsd": ["107121"], "band_gap": [0.0], "density": [9.570542], "density_atomic": [20.75688], "deprecated": [false], "efermi": [7.298783], "energy_above_hull": [0.07089598], "energy_per_atom": [-6.380549], "formation_energy_per_atom": [-0.3244398], "homogeneous_poisson": [0.332], "is_gap_direct": [false], "is_magnetic": [false], "is_metal": [true], "is_stable": [false], "nelements": [3], "nsites": [3], "num_magnetic_sites": [0], "num_unique_magnetic_sites": [0], "theoretical": [false], "total_magnetization": [2.63e-05], "total_magnetization_normalized_formula_units": [2.63e-05], "total_magnetization_normalized_vol": [4.223499e-07], "uncorrected_energy_per_atom": [-6.380549], "universal_anisotropy": [0.43], "volume": [62.27065]}