{"includesElement": ["", "Zn", "In", "Te"], "includesElement___series_id": [8, 7, 5], "includesElement__abundance_crust": [70.0, 0.25, 0.001], "includesElement__atomic_number": [30, 49, 52], "includesElement__atomic_radius": [135.0, 155.0, 140.0], "includesElement__atomic_radius_rahm": [222.0, 246.0, 242.0], "includesElement__atomic_volume": [9.2, 15.7, 20.5], "includesElement__atomic_weight": [65.38, 114.818, 127.6], "includesElement__covalent_radius_cordero": [122.0, 142.0, 138.0], "includesElement__covalent_radius_pyykko": [118.0, 142.0, 136.0], "includesElement__covalent_radius_pyykko_double": [120.0, 136.0, 128.0], "includesElement__density": [7.134, 7.31, 6.232], "includesElement__dipole_polarizability": [38.67, 65.0, 38.0], "includesElement__dipole_polarizability_unc": [0.3, 4.0], "includesElement__electronegativity_allred-rochow": [0.0003124102, 0.0002479667, 0.0003757569], "includesElement__electronegativity_cottrell-sutton": [0.1920011, 0.1876467, 0.2260596], "includesElement__electronegativity_ghosh": [0.1551518, 0.16423, 0.2056992], "includesElement__electronegativity_gordy": [0.03686441, 0.03521127, 0.05110294], "includesElement__electronegativity_mulliken": [4.6971, 3.043178, 5.490268], "includesElement__electronegativity_nagle": [0.6770213, 0.3587038, 0.5404919], "includesElement__electronegativity_pauling": [1.65, 1.78, 2.1], "includesElement__electronegativity_sanderson": [0.8100877, 0.7172747, 0.8622506], "includesElement__en_ghosh": [0.1551518, 0.16423, 0.2056992], "includesElement__en_pauling": [1.65, 1.78, 2.1], "includesElement__evaporation_heat": [114.8, 225.1, 49.8], "includesElement__fusion_heat": [7.28, 3.24, 17.91], "includesElement__glawe_number": [74, 80, 94], "includesElement__group_id": [12, 13, 16], "includesElement__heat_of_formation": [130.4, 243.0, 196.6], "includesElement__is_radioactive": [false], "includesElement__lattice_constant": [2.66, 4.59, 4.45], "includesElement__mendeleev_number": [77, 84, 102], "includesElement__molar_heat_capacity": [25.39, 26.74, 25.73], "includesElement__period": [4, 5], "includesElement__pettifor_number": [76, 79, 92], "includesElement__specific_heat_capacity": [0.388, 0.233, 0.202], "includesElement__vdw_radius": [201.0, 193.0, 206.0], "includesElement__vdw_radius_alvarez": [239.0, 243.0, 199.0], "includesElement__vdw_radius_mm3": [229.0, 264.0, 244.0], "includesElement__vdw_radius_uff": [276.3, 446.3, 447.0], "includesElement__abundance_sea": [0.0049, 0.02], "includesElement__atomic_weight_uncertainty": [0.02, 0.001, 0.03], "includesElement__c6_gb": [276.0, 643.0, 471.0], "includesElement__covalent_radius_bragg": [132.0, 133.0], "includesElement__electronegativity_allen": [9.395, 9.793, 12.76], "includesElement__en_allen": [9.395, 9.793, 12.76], "includesElement__metallic_radius": [121.0, 142.0, 137.0], "includesElement__metallic_radius_c12": [134.0, 158.0, 160.0], "includesElement__thermal_conductivity": [116.0, 81.8, 14.3], "includesElement__vdw_radius_batsanov": [210.0, 220.0], "includesElement__c6": [284.0, 779.0, 445.0], "includesElement__gas_basicity": [586.0], "includesElement__proton_affinity": [608.6], "includesElement__covalent_radius_pyykko_triple": [146.0, 121.0], "includesElement__discovery_year": [1863, 1782], "includesElement__electron_affinity": [0.3, 1.970876], "includesElement__vdw_radius_dreiding": [459.0, 423.0], "includesElement__vdw_radius_bondi": [193.0, 206.0], "formula": ["In2Te4Zn1"], "spacegroup": ["82"], "thermalConductivity": [1.66508], "icsd": ["25650"], "band_gap": [0.8291], "density": [5.552411], "density_atomic": [34.41164], "deprecated": [false], "efermi": [3.73687], "energy_above_hull": [0.0], "energy_per_atom": [-3.378977], "formation_energy_per_atom": [-0.6145037], "homogeneous_poisson": [0.24], "is_gap_direct": [true], "is_magnetic": [false], "is_metal": [false], "is_stable": [true], "nelements": [3], "nsites": [7], "num_magnetic_sites": [0], "num_unique_magnetic_sites": [0], "theoretical": [false], "total_magnetization": [0.0], "total_magnetization_normalized_formula_units": [0.0], "total_magnetization_normalized_vol": [0.0], "uncorrected_energy_per_atom": [-22.75124], "universal_anisotropy": [0.676], "volume": [240.8815], "cbm": [4.5241], "e_electronic": [10.11807], "e_ionic": [3.346744], "e_total": [13.46481], "equilibrium_reaction_energy_per_atom": [-0.02304618], "n": [3.180891], "vbm": [3.695], "e_ij_max": [0.1031757]}