{"includesElement": ["", "Sc", "Ir"], "includesElement___series_id": [8], "includesElement__abundance_crust": [22.0, 0.001], "includesElement__atomic_number": [21, 77], "includesElement__atomic_radius": [160.0, 135.0], "includesElement__atomic_radius_rahm": [263.0, 240.0], "includesElement__atomic_volume": [15.0, 8.54], "includesElement__atomic_weight": [44.95591, 192.217], "includesElement__covalent_radius_cordero": [170.0, 141.0], "includesElement__covalent_radius_pyykko": [148.0, 122.0], "includesElement__covalent_radius_pyykko_double": [116.0, 115.0], "includesElement__covalent_radius_pyykko_triple": [114.0, 107.0], "includesElement__density": [2.99, 22.5622], "includesElement__dipole_polarizability": [97.0, 54.0], "includesElement__dipole_polarizability_unc": [10.0, 7.0], "includesElement__discovery_year": [1879, 1804], "includesElement__electron_affinity": [0.188, 1.5638], "includesElement__electronegativity_allred-rochow": [0.0001369613, 0.0002620263], "includesElement__electronegativity_cottrell-sutton": [0.1423737, 0.1787938], "includesElement__electronegativity_ghosh": [0.1193833, 0.25106], "includesElement__electronegativity_gordy": [0.02027027, 0.03196721], "includesElement__electronegativity_mulliken": [3.374745, 5.26541], "includesElement__electronegativity_nagle": [0.3138941, 0.5503212], "includesElement__electronegativity_pauling": [1.36, 2.2], "includesElement__electronegativity_sanderson": [0.3038674, 1.475998], "includesElement__en_ghosh": [0.1193833, 0.25106], "includesElement__en_pauling": [1.36, 2.2], "includesElement__evaporation_heat": [332.7, 604.0], "includesElement__fusion_heat": [15.8, 27.61], "includesElement__glawe_number": [48, 62], "includesElement__group_id": [3, 9], "includesElement__heat_of_formation": [377.8, 669.0], "includesElement__is_radioactive": [false], "includesElement__lattice_constant": [3.31, 3.84], "includesElement__mendeleev_number": [11, 65], "includesElement__molar_heat_capacity": [25.52, 25.1], "includesElement__period": [4, 6], "includesElement__pettifor_number": [20, 65], "includesElement__specific_heat_capacity": [0.568, 0.131], "includesElement__vdw_radius": [215.0, 213.0], "includesElement__vdw_radius_alvarez": [258.0, 241.0], "includesElement__vdw_radius_mm3": [261.0, 236.0], "includesElement__vdw_radius_uff": [329.5, 284.0], "includesElement__abundance_sea": [6e-07], "includesElement__atomic_weight_uncertainty": [5e-06, 0.003], "includesElement__c6_gb": [1570.0, 522.0], "includesElement__electronegativity_allen": [7.042, 9.96], "includesElement__en_allen": [7.042, 9.96], "includesElement__metallic_radius": [144.0, 127.0], "includesElement__metallic_radius_c12": [162.0, 136.0], "includesElement__thermal_conductivity": [15.8, 147.0], "includesElement__vdw_radius_batsanov": [230.0, 200.0], "includesElement__c6": [1383.0], "includesElement__is_monoisotopic": [true], "includesElement__gas_basicity": [892.0], "includesElement__proton_affinity": [914.0], "formula": ["Ir8Sc22"], "spacegroup": ["225"], "thermalConductivity": [1.64529], "icsd": ["10438"], "band_gap": [0.0], "density": [7.021456], "density_atomic": [19.91892], "deprecated": [false], "efermi": [5.403525], "energy_above_hull": [0.0], "energy_per_atom": [-7.695998], "formation_energy_per_atom": [-0.6952717], "is_gap_direct": [false], "is_magnetic": [false], "is_metal": [true], "is_stable": [true], "nelements": [2], "nsites": [30], "num_magnetic_sites": [0], "num_unique_magnetic_sites": [0], "theoretical": [false], "total_magnetization": [2.551425], "total_magnetization_normalized_formula_units": [1.275712], "total_magnetization_normalized_vol": [0.004269685], "uncorrected_energy_per_atom": [-23.07465], "volume": [597.5675], "equilibrium_reaction_energy_per_atom": [-0.07811515]}