{"includesElement": ["", "Sn", "Pd", "Sr"], "includesElement___series_id": [7, 8, 4], "includesElement__abundance_crust": [2.3, 0.015, 370.0], "includesElement__atomic_number": [50, 46, 38], "includesElement__atomic_radius": [145.0, 140.0, 200.0], "includesElement__atomic_radius_rahm": [248.0, 215.0, 279.0], "includesElement__atomic_volume": [16.3, 8.9, 33.7], "includesElement__atomic_weight": [118.71, 106.42, 87.62], "includesElement__covalent_radius_cordero": [139.0, 195.0], "includesElement__covalent_radius_pyykko": [140.0, 120.0, 185.0], "includesElement__covalent_radius_pyykko_double": [130.0, 117.0, 157.0], "includesElement__covalent_radius_pyykko_triple": [132.0, 112.0, 139.0], "includesElement__density": [7.287, 12.0, 2.64], "includesElement__dipole_polarizability": [53.0, 26.14, 197.2], "includesElement__dipole_polarizability_unc": [6.0, 0.1, 0.2], "includesElement__electron_affinity": [1.112067, 0.562, 0.048], "includesElement__electronegativity_allred-rochow": [0.0002882653, 0.0004756944, 8.327246e-05], "includesElement__electronegativity_cottrell-sutton": [0.2008909, 0.2389212, 0.1241185], "includesElement__electronegativity_ghosh": [0.178052, 0.1440276, 0.1185082], "includesElement__electronegativity_gordy": [0.04035714, 0.05708333, 0.01540541], "includesElement__electronegativity_mulliken": [4.227992, 4.44943, 2.871434], "includesElement__electronegativity_nagle": [0.4225986, 0.7259357, 0.2164584], "includesElement__electronegativity_pauling": [1.96, 2.2, 0.95], "includesElement__electronegativity_sanderson": [0.7622797, 1.124263, 0.2631786], "includesElement__en_ghosh": [0.178052, 0.1440276, 0.1185082], "includesElement__en_pauling": [1.96, 2.2, 0.95], "includesElement__evaporation_heat": [296.0, 372.4, 144.0], "includesElement__fusion_heat": [7.07, 17.24, 9.2], "includesElement__glawe_number": [83, 65, 15], "includesElement__group_id": [14, 10, 2], "includesElement__heat_of_formation": [301.2, 376.6, 164.0], "includesElement__is_radioactive": [false], "includesElement__lattice_constant": [5.82, 3.89, 6.08], "includesElement__mendeleev_number": [90, 68, 8], "includesElement__molar_heat_capacity": [26.99, 25.98, 26.79], "includesElement__period": [5], "includesElement__pettifor_number": [83, 69, 15], "includesElement__specific_heat_capacity": [0.227, 0.246, 0.306], "includesElement__vdw_radius": [217.0, 210.0, 249.0], "includesElement__vdw_radius_alvarez": [242.0, 215.0, 284.0], "includesElement__vdw_radius_mm3": [259.0, 237.0, 300.0], "includesElement__vdw_radius_uff": [439.2, 289.9, 364.1], "includesElement__abundance_sea": [4e-06, 7.9], "includesElement__atomic_weight_uncertainty": [0.007, 0.01], "includesElement__c6_gb": [715.0, 628.0, 3230.0], "includesElement__covalent_radius_bragg": [140.0, 195.0], "includesElement__electronegativity_allen": [10.79, 9.402, 5.695], "includesElement__en_allen": [10.79, 9.402, 5.695], "includesElement__metallic_radius": [142.0, 128.0, 191.0], "includesElement__metallic_radius_c12": [163.0, 137.0, 215.0], "includesElement__thermal_conductivity": [66.8, 71.8], "includesElement__vdw_radius_batsanov": [225.0, 205.0, 255.0], "includesElement__c6": [659.0, 3175.0], "includesElement__vdw_radius_dreiding": [447.0], "includesElement__vdw_radius_bondi": [217.0], "includesElement__discovery_year": [1803, 1790], "includesElement__gas_basicity": [673.4], "includesElement__proton_affinity": [696.0], "includesElement__vdw_radius_truhlar": [249.0], "formula": ["Pd1Sn3Sr1"], "spacegroup": ["107"], "thermalConductivity": [0.753227], "icsd": ["105692"], "band_gap": [0.0], "density": [6.927142], "density_atomic": [26.37679], "deprecated": [false], "efermi": [6.45432], "energy_above_hull": [0.0], "energy_per_atom": [-4.359321], "formation_energy_per_atom": [-0.579116], "homogeneous_poisson": [0.39], "is_gap_direct": [false], "is_magnetic": [false], "is_metal": [true], "is_stable": [true], "nelements": [3], "nsites": [5], "num_magnetic_sites": [0], "num_unique_magnetic_sites": [0], "theoretical": [false], "total_magnetization": [0.0], "total_magnetization_normalized_formula_units": [0.0], "total_magnetization_normalized_vol": [0.0], "uncorrected_energy_per_atom": [-23.05219], "universal_anisotropy": [1.262], "volume": [131.8839], "equilibrium_reaction_energy_per_atom": [-0.05861503]}