{"includesElement": ["", "Be", "Hf"], "includesElement___series_id": [4, 8], "includesElement__abundance_crust": [2.8, 3.0], "includesElement__atomic_number": [4, 72], "includesElement__atomic_radius": [105.0, 155.0], "includesElement__atomic_radius_rahm": [219.0, 264.0], "includesElement__atomic_volume": [5.0, 13.6], "includesElement__atomic_weight": [9.012183, 178.49], "includesElement__covalent_radius_cordero": [96.0, 175.0], "includesElement__covalent_radius_pyykko": [102.0, 152.0], "includesElement__covalent_radius_pyykko_double": [90.0, 128.0], "includesElement__covalent_radius_pyykko_triple": [85.0, 122.0], "includesElement__density": [1.85, 13.3], "includesElement__dipole_polarizability": [37.74, 103.0], "includesElement__dipole_polarizability_unc": [0.03, 6.0], "includesElement__discovery_year": [1798, 1923], "includesElement__electron_affinity": [-2.4, 0.014], "includesElement__electronegativity_allred-rochow": [0.0001874279, 0.00013634], "includesElement__electronegativity_cottrell-sutton": [0.1382666, 0.1439572], "includesElement__electronegativity_ghosh": [0.144986, 0.229987], "includesElement__electronegativity_gordy": [0.01911765, 0.02072368], "includesElement__electronegativity_mulliken": [3.461349, 3.419535], "includesElement__electronegativity_nagle": [0.3756148, 0.3386421], "includesElement__electronegativity_pauling": [1.57, 1.3], "includesElement__electronegativity_sanderson": [0.1268473, 0.7352125], "includesElement__en_ghosh": [0.144986, 0.229987], "includesElement__en_pauling": [1.57, 1.3], "includesElement__evaporation_heat": [309.0, 575.0], "includesElement__fusion_heat": [12.21, 25.1], "includesElement__glawe_number": [77, 50], "includesElement__group_id": [2, 4], "includesElement__heat_of_formation": [324.0, 618.4], "includesElement__is_radioactive": [false], "includesElement__lattice_constant": [2.29, 3.2], "includesElement__mendeleev_number": [75, 45], "includesElement__molar_heat_capacity": [16.443, 25.73], "includesElement__period": [2, 6], "includesElement__pettifor_number": [77, 50], "includesElement__specific_heat_capacity": [1.825, 0.144], "includesElement__vdw_radius": [153.0, 223.0], "includesElement__vdw_radius_alvarez": [198.0, 263.0], "includesElement__vdw_radius_mm3": [223.0, 253.0], "includesElement__vdw_radius_uff": [274.5, 314.1], "includesElement__abundance_sea": [5.6e-06, 7e-06], "includesElement__atomic_weight_uncertainty": [5e-07, 0.02], "includesElement__c6_gb": [214.0, 1040.0], "includesElement__covalent_radius_bragg": [115.0], "includesElement__electronegativity_allen": [9.323, 6.83], "includesElement__en_allen": [9.323, 6.83], "includesElement__metallic_radius": [89.0, 144.0], "includesElement__metallic_radius_c12": [112.0, 159.0], "includesElement__thermal_conductivity": [201.0, 23.0], "includesElement__vdw_radius_batsanov": [190.0, 225.0], "includesElement__c6": [227.0], "includesElement__is_monoisotopic": [true], "includesElement__vdw_radius_truhlar": [153.0], "formula": ["Be5Hf1"], "spacegroup": ["191"], "thermalConductivity": [23.606], "icsd": ["58712"], "band_gap": [0.0], "density": [6.101176], "density_atomic": [10.14053], "deprecated": [false], "efermi": [4.210674], "energy_above_hull": [0.0], "energy_per_atom": [-5.005097], "formation_energy_per_atom": [-0.2293877], "homogeneous_poisson": [0.148], "is_gap_direct": [false], "is_magnetic": [false], "is_metal": [true], "is_stable": [true], "nelements": [2], "nsites": [6], "num_magnetic_sites": [0], "num_unique_magnetic_sites": [0], "theoretical": [false], "total_magnetization": [2e-07], "total_magnetization_normalized_formula_units": [2e-07], "total_magnetization_normalized_vol": [3.287139e-09], "uncorrected_energy_per_atom": [-11.39012], "universal_anisotropy": [0.364], "volume": [60.84319], "equilibrium_reaction_energy_per_atom": [-0.01684841]}