{"includesElement": ["", "Ru", "Pu"], "includesElement___series_id": [8, 10], "includesElement__abundance_crust": [0.001], "includesElement__atomic_number": [44, 94], "includesElement__atomic_radius": [130.0, 175.0], "includesElement__atomic_radius_rahm": [237.0, 278.0], "includesElement__atomic_volume": [8.3], "includesElement__atomic_weight": [101.07, 244.0], "includesElement__covalent_radius_cordero": [146.0, 187.0], "includesElement__covalent_radius_pyykko": [125.0, 172.0], "includesElement__covalent_radius_pyykko_double": [114.0, 135.0], "includesElement__covalent_radius_pyykko_triple": [103.0], "includesElement__density": [12.1, 19.7], "includesElement__dipole_polarizability": [72.0, 132.0], "includesElement__dipole_polarizability_unc": [10.0, 20.0], "includesElement__discovery_year": [1844, 1940], "includesElement__electron_affinity": [1.05], "includesElement__electronegativity_allred-rochow": [0.000208, 9.633586e-05], "includesElement__electronegativity_cottrell-sutton": [0.1612452, 0.1287236], "includesElement__electronegativity_ghosh": [0.1376494, 0.16137], "includesElement__electronegativity_gordy": [0.026, 0.01656977], "includesElement__electronegativity_mulliken": [4.20525, 3.0129], "includesElement__electronegativity_nagle": [0.4807499, 0.3928005], "includesElement__electronegativity_pauling": [2.2, 1.3], "includesElement__electronegativity_sanderson": [0.9579373, 0.6084717], "includesElement__en_ghosh": [0.1376494, 0.16137], "includesElement__en_pauling": [2.2, 1.3], "includesElement__fusion_heat": [25.5, 2.8], "includesElement__glawe_number": [61, 38], "includesElement__group_id": [8], "includesElement__heat_of_formation": [650.6, 345.0], "includesElement__is_radioactive": [false, true], "includesElement__lattice_constant": [2.7], "includesElement__mendeleev_number": [60, 24], "includesElement__molar_heat_capacity": [24.06], "includesElement__period": [5, 7], "includesElement__pettifor_number": [63, 43], "includesElement__specific_heat_capacity": [0.238], "includesElement__vdw_radius": [213.0, 243.0], "includesElement__vdw_radius_alvarez": [246.0, 281.0], "includesElement__vdw_radius_mm3": [234.0, 252.0], "includesElement__vdw_radius_uff": [296.3, 342.4], "includesElement__abundance_sea": [7e-07], "includesElement__atomic_weight_uncertainty": [0.02], "includesElement__c6_gb": [809.0], "includesElement__electronegativity_allen": [9.1], "includesElement__en_allen": [9.1], "includesElement__metallic_radius": [125.0], "includesElement__metallic_radius_c12": [134.0], "includesElement__thermal_conductivity": [117.0], "includesElement__vdw_radius_batsanov": [205.0], "includesElement__gas_basicity": [751.4], "includesElement__proton_affinity": [774.0], "includesElement__evaporation_heat": [343.5], "formula": ["Pu1Ru1"], "spacegroup": ["221"], "thermalConductivity": [0.498391], "icsd": ["105865"], "band_gap": [0.0], "density": [16.35784], "density_atomic": [17.5146], "deprecated": [false], "efermi": [12.26885], "energy_above_hull": [0.1464148], "energy_per_atom": [-11.85975], "formation_energy_per_atom": [0.1464148], "is_gap_direct": [false], "is_magnetic": [true], "is_metal": [true], "is_stable": [false], "nelements": [2], "nsites": [2], "num_magnetic_sites": [2], "num_unique_magnetic_sites": [2], "theoretical": [false], "total_magnetization": [4.18239], "total_magnetization_normalized_formula_units": [4.18239], "total_magnetization_normalized_vol": [0.1193972], "uncorrected_energy_per_atom": [-11.85975], "volume": [35.02921]}