{"includesElement": ["", "Zr", "Pd"], "includesElement___series_id": [8], "includesElement__abundance_crust": [165.0, 0.015], "includesElement__atomic_number": [40, 46], "includesElement__atomic_radius": [155.0, 140.0], "includesElement__atomic_radius_rahm": [269.0, 215.0], "includesElement__atomic_volume": [14.1, 8.9], "includesElement__atomic_weight": [91.224, 106.42], "includesElement__covalent_radius_cordero": [175.0, 139.0], "includesElement__covalent_radius_pyykko": [154.0, 120.0], "includesElement__covalent_radius_pyykko_double": [127.0, 117.0], "includesElement__covalent_radius_pyykko_triple": [121.0, 112.0], "includesElement__density": [6.52, 12.0], "includesElement__dipole_polarizability": [112.0, 26.14], "includesElement__dipole_polarizability_unc": [13.0, 0.1], "includesElement__discovery_year": [1789, 1803], "includesElement__electron_affinity": [0.426, 0.562], "includesElement__electronegativity_allred-rochow": [0.0001328217, 0.0004756944], "includesElement__electronegativity_cottrell-sutton": [0.1430194, 0.2389212], "includesElement__electronegativity_ghosh": [0.1248887, 0.1440276], "includesElement__electronegativity_gordy": [0.02045455, 0.05708333], "includesElement__electronegativity_mulliken": [3.52995, 4.44943], "includesElement__electronegativity_nagle": [0.3293169, 0.7259357], "includesElement__electronegativity_pauling": [1.33, 2.2], "includesElement__electronegativity_sanderson": [0.4744467, 1.124263], "includesElement__en_ghosh": [0.1248887, 0.1440276], "includesElement__en_pauling": [1.33, 2.2], "includesElement__evaporation_heat": [567.0, 372.4], "includesElement__fusion_heat": [19.2, 17.24], "includesElement__glawe_number": [49, 65], "includesElement__group_id": [4, 10], "includesElement__heat_of_formation": [610.0, 376.6], "includesElement__is_radioactive": [false], "includesElement__lattice_constant": [3.23, 3.89], "includesElement__mendeleev_number": [44, 68], "includesElement__molar_heat_capacity": [25.36, 25.98], "includesElement__period": [5], "includesElement__pettifor_number": [49, 69], "includesElement__specific_heat_capacity": [0.278, 0.246], "includesElement__vdw_radius": [223.0, 210.0], "includesElement__vdw_radius_alvarez": [252.0, 215.0], "includesElement__vdw_radius_mm3": [254.0, 237.0], "includesElement__vdw_radius_uff": [312.4, 289.9], "includesElement__abundance_sea": [3e-05], "includesElement__atomic_weight_uncertainty": [0.002, 0.01], "includesElement__c6_gb": [1360.0, 628.0], "includesElement__electronegativity_allen": [7.808, 9.402], "includesElement__en_allen": [7.808, 9.402], "includesElement__metallic_radius": [145.0, 128.0], "includesElement__metallic_radius_c12": [160.0, 137.0], "includesElement__thermal_conductivity": [22.7, 71.8], "includesElement__vdw_radius_batsanov": [230.0, 205.0], "includesElement__gas_basicity": [673.4], "includesElement__proton_affinity": [696.0], "formula": ["Pd1Zr2"], "spacegroup": ["139"], "thermalConductivity": [8.32751], "icsd": ["105758"], "band_gap": [0.0], "density": [7.975338], "density_atomic": [20.04833], "deprecated": [false], "efermi": [4.839684], "energy_above_hull": [0.0], "energy_per_atom": [-23.32323], "formation_energy_per_atom": [-0.503217], "homogeneous_poisson": [0.322], "is_gap_direct": [false], "is_magnetic": [false], "is_metal": [true], "is_stable": [true], "nelements": [2], "nsites": [3], "num_magnetic_sites": [0], "num_unique_magnetic_sites": [0], "theoretical": [false], "total_magnetization": [3e-07], "total_magnetization_normalized_formula_units": [3e-07], "total_magnetization_normalized_vol": [4.987947e-09], "uncorrected_energy_per_atom": [-23.32323], "universal_anisotropy": [0.486], "volume": [60.14499], "equilibrium_reaction_energy_per_atom": [-0.04114994]}