{"includesElement": ["", "Sb", "Zr", "Fe"], "includesElement___series_id": [5, 8], "includesElement__abundance_crust": [0.2, 165.0, 56300.0], "includesElement__atomic_number": [51, 40, 26], "includesElement__atomic_radius": [145.0, 155.0, 140.0], "includesElement__atomic_radius_rahm": [246.0, 269.0, 237.0], "includesElement__atomic_volume": [18.4, 14.1, 7.1], "includesElement__atomic_weight": [121.76, 91.224, 55.845], "includesElement__covalent_radius_cordero": [139.0, 175.0, 142.0], "includesElement__covalent_radius_pyykko": [140.0, 154.0, 116.0], "includesElement__covalent_radius_pyykko_double": [133.0, 127.0, 109.0], "includesElement__covalent_radius_pyykko_triple": [127.0, 121.0, 102.0], "includesElement__density": [6.68, 6.52, 7.87], "includesElement__dipole_polarizability": [43.0, 112.0, 62.0], "includesElement__dipole_polarizability_unc": [2.0, 13.0, 4.0], "includesElement__electron_affinity": [1.046, 0.426, 0.151], "includesElement__electronegativity_allred-rochow": [0.0003214286, 0.0001328217, 0.0002786861], "includesElement__electronegativity_cottrell-sutton": [0.212132, 0.1430194, 0.1797987], "includesElement__electronegativity_ghosh": [0.1918774, 0.1248887, 0.1392532], "includesElement__electronegativity_gordy": [0.045, 0.02045455, 0.03232759], "includesElement__electronegativity_mulliken": [4.827195, 3.52995, 4.026734], "includesElement__electronegativity_nagle": [0.4880907, 0.3293169, 0.5053195], "includesElement__electronegativity_pauling": [2.05, 1.33, 1.83], "includesElement__electronegativity_sanderson": [0.7762722, 0.4744467, 0.748727], "includesElement__en_ghosh": [0.1918774, 0.1248887, 0.1392532], "includesElement__en_pauling": [2.05, 1.33, 1.83], "includesElement__evaporation_heat": [195.2, 567.0, 340.0], "includesElement__fusion_heat": [20.08, 19.2, 13.8], "includesElement__glawe_number": [91, 49, 71], "includesElement__group_id": [15, 4, 8], "includesElement__heat_of_formation": [264.4, 610.0, 415.5], "includesElement__is_radioactive": [false], "includesElement__lattice_constant": [4.51, 3.23, 2.87], "includesElement__mendeleev_number": [96, 44, 59], "includesElement__molar_heat_capacity": [25.23, 25.36, 25.1], "includesElement__period": [5, 4], "includesElement__pettifor_number": [88, 49, 61], "includesElement__specific_heat_capacity": [0.207, 0.278, 0.449], "includesElement__vdw_radius": [206.0, 223.0, 204.0], "includesElement__vdw_radius_alvarez": [247.0, 252.0, 244.0], "includesElement__vdw_radius_mm3": [252.0, 254.0, 223.0], "includesElement__vdw_radius_uff": [442.0, 312.4, 291.2], "includesElement__abundance_sea": [0.00024, 3e-05, 0.002], "includesElement__atomic_weight_uncertainty": [0.001, 0.002], "includesElement__c6_gb": [504.0, 1360.0, 548.0], "includesElement__covalent_radius_bragg": [140.0], "includesElement__electronegativity_allen": [11.74, 7.808, 10.64], "includesElement__en_allen": [11.74, 7.808, 10.64], "includesElement__metallic_radius": [139.0, 145.0, 117.0], "includesElement__metallic_radius_c12": [166.0, 160.0, 126.0], "includesElement__thermal_conductivity": [24.43, 22.7, 80.4], "includesElement__vdw_radius_batsanov": [220.0, 230.0, 205.0], "includesElement__c6": [492.0, 482.0], "includesElement__vdw_radius_dreiding": [435.0], "includesElement__vdw_radius_truhlar": [206.0], "includesElement__discovery_year": [1789], "includesElement__gas_basicity": [731.1], "includesElement__proton_affinity": [754.0], "formula": ["Fe1Sb2Zr6"], "spacegroup": ["189"], "thermalConductivity": [5.8545], "icsd": ["156949"], "band_gap": [0.0], "density": [7.267796], "density_atomic": [21.49503], "deprecated": [false], "efermi": [5.877878], "energy_above_hull": [0.0], "energy_per_atom": [-8.120633], "formation_energy_per_atom": [-0.5634966], "homogeneous_poisson": [0.274], "is_gap_direct": [false], "is_magnetic": [true], "is_metal": [true], "is_stable": [true], "nelements": [3], "nsites": [9], "num_magnetic_sites": [1], "num_unique_magnetic_sites": [1], "theoretical": [false], "total_magnetization": [1.79084], "total_magnetization_normalized_formula_units": [1.79084], "total_magnetization_normalized_vol": [0.009257129], "uncorrected_energy_per_atom": [-23.02843], "universal_anisotropy": [0.11], "volume": [193.4553], "equilibrium_reaction_energy_per_atom": [-0.03469464]}