{"includesElement": ["", "Ir", "U"], "includesElement___series_id": [8, 10], "includesElement__abundance_crust": [0.001, 2.7], "includesElement__atomic_number": [77, 92], "includesElement__atomic_radius": [135.0, 175.0], "includesElement__atomic_radius_rahm": [240.0, 283.0], "includesElement__atomic_volume": [8.54, 12.5], "includesElement__atomic_weight": [192.217, 238.0289], "includesElement__covalent_radius_cordero": [141.0, 196.0], "includesElement__covalent_radius_pyykko": [122.0, 170.0], "includesElement__covalent_radius_pyykko_double": [115.0, 134.0], "includesElement__covalent_radius_pyykko_triple": [107.0, 118.0], "includesElement__density": [22.5622, 19.1], "includesElement__dipole_polarizability": [54.0, 129.0], "includesElement__dipole_polarizability_unc": [7.0, 17.0], "includesElement__discovery_year": [1804, 1789], "includesElement__electron_affinity": [1.5638], "includesElement__electronegativity_allred-rochow": [0.0002620263, 0.0001038062], "includesElement__electronegativity_cottrell-sutton": [0.1787938, 0.1328422], "includesElement__electronegativity_ghosh": [0.25106, 0.13207], "includesElement__electronegativity_gordy": [0.03196721, 0.01764706], "includesElement__electronegativity_mulliken": [5.26541, 3.097025], "includesElement__electronegativity_nagle": [0.5503212, 0.3596283], "includesElement__electronegativity_pauling": [2.2, 1.7], "includesElement__electronegativity_sanderson": [1.475998, 0.618118], "includesElement__en_ghosh": [0.25106, 0.13207], "includesElement__en_pauling": [2.2, 1.7], "includesElement__evaporation_heat": [604.0, 417.0], "includesElement__fusion_heat": [27.61, 12.6], "includesElement__glawe_number": [62, 36], "includesElement__group_id": [9], "includesElement__heat_of_formation": [669.0, 533.0], "includesElement__is_radioactive": [false, true], "includesElement__lattice_constant": [3.84, 2.85], "includesElement__mendeleev_number": [65, 20], "includesElement__molar_heat_capacity": [25.1, 27.665], "includesElement__period": [6, 7], "includesElement__pettifor_number": [65, 45], "includesElement__specific_heat_capacity": [0.131, 0.116], "includesElement__vdw_radius": [213.0, 241.0], "includesElement__vdw_radius_alvarez": [241.0, 271.0], "includesElement__vdw_radius_mm3": [236.0, 252.0], "includesElement__vdw_radius_uff": [284.0, 339.5], "includesElement__atomic_weight_uncertainty": [0.003, 3e-05], "includesElement__c6_gb": [522.0], "includesElement__electronegativity_allen": [9.96], "includesElement__en_allen": [9.96], "includesElement__metallic_radius": [127.0], "includesElement__metallic_radius_c12": [136.0], "includesElement__thermal_conductivity": [147.0, 27.5], "includesElement__vdw_radius_batsanov": [200.0, 230.0], "includesElement__abundance_sea": [0.0032], "includesElement__gas_basicity": [973.2], "includesElement__proton_affinity": [995.2], "formula": ["Ir3U1"], "spacegroup": ["221"], "thermalConductivity": [12.1322], "icsd": ["104587"], "band_gap": [0.0], "density": [20.60479], "density_atomic": [16.41376], "deprecated": [false], "efermi": [11.06811], "energy_above_hull": [0.0], "energy_per_atom": [-10.11226], "formation_energy_per_atom": [-0.6605818], "homogeneous_poisson": [0.322], "is_gap_direct": [false], "is_magnetic": [true], "is_metal": [true], "is_stable": [true], "nelements": [2], "nsites": [4], "num_magnetic_sites": [1], "num_unique_magnetic_sites": [1], "theoretical": [false], "total_magnetization": [0.4544191], "total_magnetization_normalized_formula_units": [0.4544191], "total_magnetization_normalized_vol": [0.006921315], "uncorrected_energy_per_atom": [-59.97108], "universal_anisotropy": [0.03], "volume": [65.65503], "equilibrium_reaction_energy_per_atom": [-0.4120997]}