{"includesElement": ["", "Sb", "Pd", "Ho"], "includesElement___series_id": [5, 8, 9], "includesElement__abundance_crust": [0.2, 0.015, 1.3], "includesElement__atomic_number": [51, 46, 67], "includesElement__atomic_radius": [145.0, 140.0, 175.0], "includesElement__atomic_radius_rahm": [246.0, 215.0, 273.0], "includesElement__atomic_volume": [18.4, 8.9, 18.7], "includesElement__atomic_weight": [121.76, 106.42, 164.9303], "includesElement__covalent_radius_cordero": [139.0, 192.0], "includesElement__covalent_radius_pyykko": [140.0, 120.0, 166.0], "includesElement__covalent_radius_pyykko_double": [133.0, 117.0], "includesElement__covalent_radius_pyykko_triple": [127.0, 112.0], "includesElement__density": [6.68, 12.0, 8.8], "includesElement__dipole_polarizability": [43.0, 26.14, 156.0], "includesElement__dipole_polarizability_unc": [2.0, 0.1, 10.0], "includesElement__electron_affinity": [1.046, 0.562], "includesElement__electronegativity_allred-rochow": [0.0003214286, 0.0004756944, 0.0001034258], "includesElement__electronegativity_cottrell-sutton": [0.212132, 0.2389212, 0.1310293], "includesElement__electronegativity_ghosh": [0.1918774, 0.1440276, 0.207795], "includesElement__electronegativity_gordy": [0.045, 0.05708333, 0.01716867], "includesElement__electronegativity_mulliken": [4.827195, 4.44943, 3.01075], "includesElement__electronegativity_nagle": [0.4880907, 0.7259357, 0.4367902], "includesElement__electronegativity_pauling": [2.05, 2.2, 1.23], "includesElement__electronegativity_sanderson": [0.7762722, 1.124263, 0.5434919], "includesElement__en_ghosh": [0.1918774, 0.1440276, 0.207795], "includesElement__en_pauling": [2.05, 2.2, 1.23], "includesElement__evaporation_heat": [195.2, 372.4, 301.0], "includesElement__fusion_heat": [20.08, 17.24], "includesElement__glawe_number": [91, 65, 23], "includesElement__group_id": [15, 10], "includesElement__heat_of_formation": [264.4, 376.6, 300.6], "includesElement__is_radioactive": [false], "includesElement__lattice_constant": [4.51, 3.89, 3.58], "includesElement__mendeleev_number": [96, 68, 33], "includesElement__molar_heat_capacity": [25.23, 25.98, 27.15], "includesElement__period": [5, 6], "includesElement__pettifor_number": [88, 69, 24], "includesElement__specific_heat_capacity": [0.207, 0.246, 0.165], "includesElement__vdw_radius": [206.0, 210.0, 230.0], "includesElement__vdw_radius_alvarez": [247.0, 215.0, 281.0], "includesElement__vdw_radius_mm3": [252.0, 237.0, 267.0], "includesElement__vdw_radius_uff": [442.0, 289.9, 340.9], "includesElement__abundance_sea": [0.00024, 2.2e-07], "includesElement__atomic_weight_uncertainty": [0.001, 0.01, 2e-05], "includesElement__c6_gb": [504.0, 628.0, 2280.0], "includesElement__covalent_radius_bragg": [140.0], "includesElement__electronegativity_allen": [11.74, 9.402], "includesElement__en_allen": [11.74, 9.402], "includesElement__metallic_radius": [139.0, 128.0], "includesElement__metallic_radius_c12": [166.0, 137.0], "includesElement__thermal_conductivity": [24.43, 71.8], "includesElement__vdw_radius_batsanov": [220.0, 205.0], "includesElement__c6": [492.0], "includesElement__vdw_radius_dreiding": [435.0], "includesElement__vdw_radius_truhlar": [206.0], "includesElement__discovery_year": [1803, 1878], "includesElement__gas_basicity": [673.4], "includesElement__proton_affinity": [696.0], "includesElement__is_monoisotopic": [true], "formula": ["Ho1Pd1Sb1", "HoSbPd"], "mp_id": ["567418"], "spacegroup": ["216"], "thermalConductivity": [0.679423, 7.72], "icsd": ["108547"], "band_gap": [0.3916], "density": [8.563341], "density_atomic": [25.40967], "deprecated": [false], "efermi": [5.012488], "energy_above_hull": [0.2757552], "energy_per_atom": [-27.98863], "formation_energy_per_atom": [-0.8059231], "is_gap_direct": [false], "is_magnetic": [false], "is_metal": [false], "is_stable": [false], "nelements": [3], "nsites": [3], "num_magnetic_sites": [0], "num_unique_magnetic_sites": [0], "theoretical": [false], "total_magnetization": [0.0011941], "total_magnetization_normalized_formula_units": [0.0011941], "total_magnetization_normalized_vol": [1.566464e-05], "uncorrected_energy_per_atom": [-5.352274], "volume": [76.22902], "cbm": [5.2912], "vbm": [4.8996]}