{"includesElement": ["", "Al", "Os", "U"], "includesElement___series_id": [7, 8, 10], "includesElement__abundance_crust": [82300.0, 0.0015, 2.7], "includesElement__atomic_number": [13, 76, 92], "includesElement__atomic_radius": [125.0, 130.0, 175.0], "includesElement__atomic_radius_rahm": [239.0, 244.0, 283.0], "includesElement__atomic_volume": [10.0, 8.43, 12.5], "includesElement__atomic_weight": [26.98154, 190.23, 238.0289], "includesElement__covalent_radius_cordero": [121.0, 144.0, 196.0], "includesElement__covalent_radius_pyykko": [126.0, 129.0, 170.0], "includesElement__covalent_radius_pyykko_double": [113.0, 116.0, 134.0], "includesElement__covalent_radius_pyykko_triple": [111.0, 109.0, 118.0], "includesElement__density": [2.7, 22.5872, 19.1], "includesElement__dipole_polarizability": [57.8, 57.0, 129.0], "includesElement__dipole_polarizability_unc": [1.0, 3.0, 17.0], "includesElement__discovery_year": [1825, 1804, 1789], "includesElement__electron_affinity": [0.43283, 1.1], "includesElement__electronegativity_allred-rochow": [0.0002204586, 0.000225347, 0.0001038062], "includesElement__electronegativity_cottrell-sutton": [0.1666667, 0.1704986, 0.1328422], "includesElement__electronegativity_ghosh": [0.150078, 0.2479845, 0.13207], "includesElement__electronegativity_gordy": [0.02777778, 0.02906977, 0.01764706], "includesElement__electronegativity_mulliken": [3.209299, 4.769115, 3.097025], "includesElement__electronegativity_nagle": [0.3730192, 0.5196828, 0.3596283], "includesElement__electronegativity_pauling": [1.61, 2.2, 1.7], "includesElement__electronegativity_sanderson": [0.2360927, 1.239276, 0.618118], "includesElement__en_ghosh": [0.150078, 0.2479845, 0.13207], "includesElement__en_pauling": [1.61, 2.2, 1.7], "includesElement__evaporation_heat": [284.1, 738.0, 417.0], "includesElement__fusion_heat": [10.75, 31.7, 12.6], "includesElement__glawe_number": [78, 60, 36], "includesElement__group_id": [13, 8], "includesElement__heat_of_formation": [330.9, 787.0, 533.0], "includesElement__is_radioactive": [false, true], "includesElement__lattice_constant": [4.05, 2.74, 2.85], "includesElement__mendeleev_number": [82, 61, 20], "includesElement__molar_heat_capacity": [24.2, 24.7, 27.665], "includesElement__period": [3, 6, 7], "includesElement__pettifor_number": [80, 62, 45], "includesElement__specific_heat_capacity": [0.897, 0.13, 0.116], "includesElement__vdw_radius": [184.0, 216.0, 241.0], "includesElement__vdw_radius_alvarez": [225.0, 248.0, 271.0], "includesElement__vdw_radius_mm3": [236.0, 235.0, 252.0], "includesElement__vdw_radius_uff": [449.9, 312.0, 339.5], "includesElement__abundance_sea": [0.002, 0.0032], "includesElement__atomic_weight_uncertainty": [7e-07, 0.03, 3e-05], "includesElement__c6_gb": [520.0, 584.0], "includesElement__covalent_radius_bragg": [135.0], "includesElement__electronegativity_allen": [9.539, 9.78], "includesElement__en_allen": [9.539, 9.78], "includesElement__metallic_radius": [125.0, 126.0], "includesElement__metallic_radius_c12": [143.0, 135.0], "includesElement__thermal_conductivity": [237.0, 27.5], "includesElement__vdw_radius_batsanov": [210.0, 200.0, 230.0], "includesElement__c6": [528.0], "includesElement__is_monoisotopic": [true], "includesElement__vdw_radius_dreiding": [439.0], "includesElement__vdw_radius_truhlar": [184.0], "includesElement__gas_basicity": [973.2], "includesElement__proton_affinity": [995.2], "formula": ["Al6Os2U4"], "spacegroup": ["194"], "thermalConductivity": [4.12965], "icsd": ["58111"], "band_gap": [0.0], "density": [11.2858], "density_atomic": [18.32404], "deprecated": [false], "efermi": [10.14867], "energy_above_hull": [0.07742593], "energy_per_atom": [-7.761375], "formation_energy_per_atom": [-0.2535553], "is_gap_direct": [false], "is_magnetic": [true], "is_metal": [true], "is_stable": [false], "nelements": [3], "nsites": [12], "num_magnetic_sites": [6], "num_unique_magnetic_sites": [2], "theoretical": [false], "total_magnetization": [10.20431], "total_magnetization_normalized_formula_units": [5.102155], "total_magnetization_normalized_vol": [0.04640675], "uncorrected_energy_per_atom": [-7.761375], "volume": [219.8885]}