{"includesElement": ["", "Ni", "Ce", "B"], "includesElement___series_id": [8, 9, 5], "includesElement__abundance_crust": [84.0, 66.5, 10.0], "includesElement__atomic_number": [28, 58, 5], "includesElement__atomic_radius": [135.0, 185.0, 85.0], "includesElement__atomic_radius_rahm": [229.0, 282.0, 205.0], "includesElement__atomic_volume": [6.6, 21.0, 4.6], "includesElement__atomic_weight": [58.6934, 140.116, 10.81], "includesElement__covalent_radius_cordero": [124.0, 204.0, 84.0], "includesElement__covalent_radius_pyykko": [110.0, 163.0, 85.0], "includesElement__covalent_radius_pyykko_double": [101.0, 137.0, 78.0], "includesElement__covalent_radius_pyykko_triple": [101.0, 131.0, 73.0], "includesElement__density": [8.9, 6.77, 2.34], "includesElement__dipole_polarizability": [49.0, 205.0, 20.5], "includesElement__dipole_polarizability_unc": [3.0, 20.0, 0.1], "includesElement__discovery_year": [1751, 1803, 1808], "includesElement__electron_affinity": [1.156, 0.65, 0.279723], "includesElement__electronegativity_allred-rochow": [0.0003347107, 0.0001129135, 0.0003598616], "includesElement__electronegativity_cottrell-sutton": [0.1918806, 0.1356647, 0.1748949], "includesElement__electronegativity_ghosh": [0.1472068, 0.16761, 0.184886], "includesElement__electronegativity_gordy": [0.03681818, 0.01840491, 0.03058824], "includesElement__electronegativity_mulliken": [4.397939, 3.0943, 4.288871], "includesElement__electronegativity_nagle": [0.588755, 0.2692167, 0.5269739], "includesElement__electronegativity_pauling": [1.91, 1.12, 2.04], "includesElement__electronegativity_sanderson": [0.937704, 0.5356179, 0.2546274], "includesElement__en_ghosh": [0.1472068, 0.16761, 0.184886], "includesElement__en_pauling": [1.91, 1.12, 2.04], "includesElement__evaporation_heat": [378.6, 398.0, 504.5], "includesElement__fusion_heat": [17.61, 5.2, 23.6], "includesElement__glawe_number": [69, 31, 86], "includesElement__group_id": [10, 13], "includesElement__heat_of_formation": [430.1, 420.1, 565.0], "includesElement__is_radioactive": [false], "includesElement__lattice_constant": [3.52, 5.16, 8.73], "includesElement__mendeleev_number": [67, 15, 81], "includesElement__molar_heat_capacity": [26.07, 26.94, 11.087], "includesElement__period": [4, 6, 2], "includesElement__pettifor_number": [67, 32, 86], "includesElement__specific_heat_capacity": [0.444, 0.192, 1.026], "includesElement__vdw_radius": [197.0, 242.0, 192.0], "includesElement__vdw_radius_alvarez": [240.0, 288.0, 191.0], "includesElement__vdw_radius_mm3": [222.0, 274.0, 215.0], "includesElement__vdw_radius_uff": [283.4, 355.6, 408.3], "includesElement__abundance_sea": [0.00056, 1.2e-06, 4.44], "includesElement__atomic_weight_uncertainty": [0.0004, 0.001], "includesElement__c6_gb": [393.0, 3480.0, 99.2], "includesElement__covalent_radius_bragg": [135.0], "includesElement__electronegativity_allen": [11.13, 12.13], "includesElement__en_allen": [11.13, 12.13], "includesElement__metallic_radius": [115.0, 80.0], "includesElement__metallic_radius_c12": [124.0, 98.0], "includesElement__thermal_conductivity": [90.9, 11.3, 27.4], "includesElement__vdw_radius_batsanov": [200.0, 180.0], "includesElement__c6": [373.0, 99.5], "includesElement__gas_basicity": [714.1], "includesElement__proton_affinity": [737.0], "includesElement__vdw_radius_dreiding": [402.0], "includesElement__vdw_radius_truhlar": [192.0], "formula": ["B6Ce2Ni21"], "spacegroup": ["225"], "thermalConductivity": [1.71861], "icsd": ["44151"], "band_gap": [0.0], "density": [8.58848], "density_atomic": [10.51836], "deprecated": [false], "efermi": [8.595206], "energy_above_hull": [0.00454955], "energy_per_atom": [-6.311659], "formation_energy_per_atom": [-0.3346545], "is_gap_direct": [false], "is_magnetic": [true], "is_metal": [true], "is_stable": [false], "nelements": [3], "nsites": [29], "num_magnetic_sites": [11], "num_unique_magnetic_sites": [3], "theoretical": [false], "total_magnetization": [1.395935], "total_magnetization_normalized_formula_units": [1.395935], "total_magnetization_normalized_vol": [0.004576349], "uncorrected_energy_per_atom": [-6.311659], "volume": [305.0324]}