{"includesElement": ["", "Se", "Cl", "Cs"], "includesElement___series_id": [1, 6, 3], "includesElement__abundance_crust": [0.05, 145.0, 3.0], "includesElement__atomic_number": [34, 17, 55], "includesElement__atomic_radius": [115.0, 100.0, 260.0], "includesElement__atomic_radius_rahm": [224.0, 206.0, 249.0], "includesElement__atomic_volume": [16.5, 18.7, 70.0], "includesElement__atomic_weight": [78.971, 35.45, 132.9055], "includesElement__covalent_radius_cordero": [120.0, 102.0, 244.0], "includesElement__covalent_radius_pyykko": [116.0, 99.0, 232.0], "includesElement__covalent_radius_pyykko_double": [107.0, 95.0, 209.0], "includesElement__covalent_radius_pyykko_triple": [107.0, 93.0], "includesElement__density": [4.809, 0.002898, 1.873], "includesElement__dipole_polarizability": [28.9, 14.6, 400.9], "includesElement__dipole_polarizability_unc": [1.0, 0.1, 0.7], "includesElement__discovery_year": [1818, 1774, 1860], "includesElement__electron_affinity": [2.02067, 3.612725, 0.471626], "includesElement__electronegativity_allred-rochow": [0.0005164982, 0.0006223855, 4.087396e-05], "includesElement__electronegativity_cottrell-sutton": [0.2447729, 0.248226, 0.09737946], "includesElement__electronegativity_ghosh": [0.2240328, 0.263803, 0.1542125], "includesElement__electronegativity_gordy": [0.05991379, 0.06161616, 0.009482759], "includesElement__electronegativity_mulliken": [5.886531, 8.290178, 2.182766], "includesElement__electronegativity_nagle": [0.592131, 0.7826755, 0.1356192], "includesElement__electronegativity_pauling": [2.55, 3.16, 0.79], "includesElement__electronegativity_sanderson": [0.9659121, 0.8123773, 0.1814531], "includesElement__en_ghosh": [0.2240328, 0.263803, 0.1542125], "includesElement__en_pauling": [2.55, 3.16, 0.79], "includesElement__evaporation_heat": [59.7, 20.41, 68.3], "includesElement__fusion_heat": [5.23, 6.41, 2.09], "includesElement__glawe_number": [95, 101, 8], "includesElement__group_id": [16, 17, 1], "includesElement__heat_of_formation": [227.2, 121.302, 76.5], "includesElement__is_radioactive": [false], "includesElement__lattice_constant": [4.36, 6.24, 6.05], "includesElement__mendeleev_number": [101, 107, 5], "includesElement__molar_heat_capacity": [25.363, 33.949, 32.21], "includesElement__period": [4, 3, 6], "includesElement__pettifor_number": [93, 99, 8], "includesElement__specific_heat_capacity": [0.321, 0.479, 0.242], "includesElement__vdw_radius": [190.0, 175.0, 343.0], "includesElement__vdw_radius_alvarez": [182.0, 348.0], "includesElement__vdw_radius_mm3": [229.0, 207.0, 344.0], "includesElement__vdw_radius_uff": [420.5, 394.7, 451.7], "includesElement__abundance_sea": [0.0002, 19400.0, 0.0003], "includesElement__atomic_weight_uncertainty": [0.008, 6e-08], "includesElement__c6_gb": [233.0, 97.1, 6660.0], "includesElement__covalent_radius_bragg": [117.0, 105.0, 237.0], "includesElement__electronegativity_allen": [14.34, 16.97, 3.898], "includesElement__en_allen": [14.34, 16.97, 3.898], "includesElement__metallic_radius": [117.0, 235.0], "includesElement__metallic_radius_c12": [140.0, 91.0, 267.0], "includesElement__thermal_conductivity": [0.52, 0.009, 35.9], "includesElement__vdw_radius_batsanov": [190.0, 180.0, 300.0], "includesElement__c6": [210.0, 94.6], "includesElement__vdw_radius_dreiding": [403.0, 395.03], "includesElement__vdw_radius_bondi": [190.0, 175.0], "includesElement__gas_basicity": [490.1], "includesElement__proton_affinity": [513.6], "includesElement__vdw_radius_rt": [176.0], "includesElement__is_monoisotopic": [true], "includesElement__vdw_radius_truhlar": [343.0], "formula": ["Cl6Cs2Se1"], "spacegroup": ["225"], "thermalConductivity": [1.02532], "icsd": ["26693"], "band_gap": [2.7509], "density": [3.291216], "density_atomic": [31.25262], "deprecated": [false], "efermi": [-0.5962247], "energy_above_hull": [0.0], "energy_per_atom": [-3.385265], "formation_energy_per_atom": [-1.564755], "homogeneous_poisson": [0.262], "is_gap_direct": [false], "is_magnetic": [false], "is_metal": [false], "is_stable": [true], "nelements": [3], "nsites": [9], "num_magnetic_sites": [0], "num_unique_magnetic_sites": [0], "theoretical": [false], "total_magnetization": [0.0], "total_magnetization_normalized_formula_units": [0.0], "total_magnetization_normalized_vol": [0.0], "uncorrected_energy_per_atom": [-12.54714], "universal_anisotropy": [0.058], "volume": [281.2736], "cbm": [2.0647], "e_electronic": [3.083086], "e_ionic": [5.058689], "e_total": [8.141775], "equilibrium_reaction_energy_per_atom": [-0.09639291], "n": [1.755872], "vbm": [-0.6862]}