{"includesElement": ["", "N", "Ir"], "includesElement___series_id": [1, 8], "includesElement__abundance_crust": [19.0, 0.001], "includesElement__atomic_number": [7, 77], "includesElement__atomic_radius": [65.0, 135.0], "includesElement__atomic_radius_rahm": [179.0, 240.0], "includesElement__atomic_volume": [17.3, 8.54], "includesElement__atomic_weight": [14.007, 192.217], "includesElement__covalent_radius_cordero": [71.0, 141.0], "includesElement__covalent_radius_pyykko": [71.0, 122.0], "includesElement__covalent_radius_pyykko_double": [60.0, 115.0], "includesElement__covalent_radius_pyykko_triple": [54.0, 107.0], "includesElement__density": [0.001145, 22.5622], "includesElement__dipole_polarizability": [7.4, 54.0], "includesElement__dipole_polarizability_unc": [0.2, 7.0], "includesElement__discovery_year": [1772, 1804], "includesElement__electron_affinity": [-1.4, 1.5638], "includesElement__electronegativity_allred-rochow": [0.000773656, 0.0002620263], "includesElement__electronegativity_cottrell-sutton": [0.2343706, 0.1787938], "includesElement__electronegativity_ghosh": [0.26493, 0.25106], "includesElement__electronegativity_gordy": [0.05492958, 0.03196721], "includesElement__electronegativity_mulliken": [6.567065, 5.26541], "includesElement__electronegativity_nagle": [0.8774979, 0.5503212], "includesElement__electronegativity_pauling": [3.04, 2.2], "includesElement__electronegativity_sanderson": [0.577482, 1.475998], "includesElement__en_ghosh": [0.26493, 0.25106], "includesElement__en_pauling": [3.04, 2.2], "includesElement__glawe_number": [88, 62], "includesElement__group_id": [15, 9], "includesElement__heat_of_formation": [472.44, 669.0], "includesElement__is_radioactive": [false], "includesElement__lattice_constant": [4.039, 3.84], "includesElement__mendeleev_number": [93, 65], "includesElement__molar_heat_capacity": [29.124, 25.1], "includesElement__period": [2, 6], "includesElement__pettifor_number": [100, 65], "includesElement__specific_heat_capacity": [1.04, 0.131], "includesElement__vdw_radius": [155.0, 213.0], "includesElement__vdw_radius_alvarez": [166.0, 241.0], "includesElement__vdw_radius_mm3": [193.0, 236.0], "includesElement__vdw_radius_uff": [366.0, 284.0], "includesElement__abundance_sea": [0.5], "includesElement__c6_gb": [25.7, 522.0], "includesElement__covalent_radius_bragg": [65.0], "includesElement__electronegativity_allen": [18.13, 9.96], "includesElement__en_allen": [18.13, 9.96], "includesElement__metallic_radius_c12": [53.0, 136.0], "includesElement__thermal_conductivity": [0.026, 147.0], "includesElement__vdw_radius_batsanov": [160.0, 200.0], "includesElement__c6": [24.2], "includesElement__vdw_radius_dreiding": [366.21], "includesElement__gas_basicity": [318.7], "includesElement__proton_affinity": [342.2], "includesElement__vdw_radius_bondi": [155.0], "includesElement__vdw_radius_rt": [164.0], "includesElement__evaporation_heat": [604.0], "includesElement__fusion_heat": [27.61], "includesElement__atomic_weight_uncertainty": [0.003], "includesElement__metallic_radius": [127.0], "formula": ["Ir4N8"], "spacegroup": ["14"], "thermalConductivity": [14.3253], "icsd": ["160623"], "band_gap": [0.32], "density": [12.99027], "density_atomic": [9.38398], "deprecated": [false], "efermi": [8.523494], "energy_above_hull": [0.1651783], "energy_per_atom": [-23.37377], "formation_energy_per_atom": [0.1651783], "homogeneous_poisson": [0.247], "is_gap_direct": [false], "is_magnetic": [false], "is_metal": [false], "is_stable": [false], "nelements": [2], "nsites": [12], "num_magnetic_sites": [0], "num_unique_magnetic_sites": [0], "theoretical": [true], "total_magnetization": [7.82e-05], "total_magnetization_normalized_formula_units": [1.955e-05], "total_magnetization_normalized_vol": [6.944459e-07], "uncorrected_energy_per_atom": [-8.097963], "universal_anisotropy": [0.777], "volume": [112.6078], "cbm": [8.7706], "vbm": [8.4506]}