{"includesElement": ["", "S", "Ru"], "includesElement___series_id": [1, 8], "includesElement__abundance_crust": [350.0, 0.001], "includesElement__atomic_number": [16, 44], "includesElement__atomic_radius": [100.0, 130.0], "includesElement__atomic_radius_rahm": [214.0, 237.0], "includesElement__atomic_volume": [15.5, 8.3], "includesElement__atomic_weight": [32.06, 101.07], "includesElement__covalent_radius_cordero": [105.0, 146.0], "includesElement__covalent_radius_pyykko": [103.0, 125.0], "includesElement__covalent_radius_pyykko_double": [94.0, 114.0], "includesElement__covalent_radius_pyykko_triple": [95.0, 103.0], "includesElement__density": [2.07, 12.1], "includesElement__dipole_polarizability": [19.4, 72.0], "includesElement__dipole_polarizability_unc": [0.1, 10.0], "includesElement__electron_affinity": [2.077104, 1.05], "includesElement__electronegativity_allred-rochow": [0.0005137148, 0.000208], "includesElement__electronegativity_cottrell-sutton": [0.2300274, 0.1612452], "includesElement__electronegativity_ghosh": [0.23596, 0.1376494], "includesElement__electronegativity_gordy": [0.05291262, 0.026], "includesElement__electronegativity_mulliken": [6.218557, 4.20525], "includesElement__electronegativity_nagle": [0.6762644, 0.4807499], "includesElement__electronegativity_pauling": [2.58, 2.2], "includesElement__electronegativity_sanderson": [0.6397251, 0.9579373], "includesElement__en_ghosh": [0.23596, 0.1376494], "includesElement__en_pauling": [2.58, 2.2], "includesElement__evaporation_heat": [10.5], "includesElement__fusion_heat": [1.23, 25.5], "includesElement__glawe_number": [96, 61], "includesElement__group_id": [16, 8], "includesElement__heat_of_formation": [277.17, 650.6], "includesElement__is_radioactive": [false], "includesElement__lattice_constant": [10.47, 2.7], "includesElement__mendeleev_number": [100, 60], "includesElement__molar_heat_capacity": [22.7, 24.06], "includesElement__period": [3, 5], "includesElement__pettifor_number": [94, 63], "includesElement__specific_heat_capacity": [0.708, 0.238], "includesElement__vdw_radius": [180.0, 213.0], "includesElement__vdw_radius_alvarez": [189.0, 246.0], "includesElement__vdw_radius_mm3": [215.0, 234.0], "includesElement__vdw_radius_uff": [403.5, 296.3], "includesElement__abundance_sea": [905.0, 7e-07], "includesElement__c6_gb": [140.0, 809.0], "includesElement__covalent_radius_bragg": [102.0], "includesElement__electronegativity_allen": [15.31, 9.1], "includesElement__en_allen": [15.31, 9.1], "includesElement__metallic_radius": [104.0, 125.0], "includesElement__metallic_radius_c12": [127.0, 134.0], "includesElement__thermal_conductivity": [0.27, 117.0], "includesElement__vdw_radius_batsanov": [180.0, 205.0], "includesElement__c6": [134.0], "includesElement__vdw_radius_dreiding": [403.0], "includesElement__gas_basicity": [640.2, 751.4], "includesElement__proton_affinity": [664.3, 774.0], "includesElement__vdw_radius_bondi": [180.0], "includesElement__vdw_radius_rt": [181.0], "includesElement__discovery_year": [1844], "includesElement__atomic_weight_uncertainty": [0.02], "formula": ["Ru4S8"], "spacegroup": ["205"], "thermalConductivity": [8.45479], "icsd": ["24186"], "band_gap": [0.6684], "density": [6.146853], "density_atomic": [14.87596], "deprecated": [false], "efermi": [7.572069], "energy_above_hull": [0.0], "energy_per_atom": [-14.51822], "formation_energy_per_atom": [-0.6867098], "homogeneous_poisson": [0.214], "is_gap_direct": [false], "is_magnetic": [false], "is_metal": [false], "is_stable": [true], "nelements": [2], "nsites": [12], "num_magnetic_sites": [0], "num_unique_magnetic_sites": [0], "theoretical": [false], "total_magnetization": [0.0], "total_magnetization_normalized_formula_units": [0.0], "total_magnetization_normalized_vol": [0.0], "uncorrected_energy_per_atom": [-14.51822], "universal_anisotropy": [0.432], "volume": [178.5115], "cbm": [8.0499], "e_electronic": [16.68683], "e_ionic": [4.008065], "e_total": [20.69489], "equilibrium_reaction_energy_per_atom": [-0.6867098], "n": [4.084951], "vbm": [7.3815]}