{"includesElement": ["", "F", "S", "Gd"], "includesElement___series_id": [6, 1, 9], "includesElement__abundance_crust": [585.0, 350.0, 6.2], "includesElement__atomic_number": [9, 16, 64], "includesElement__atomic_radius": [50.0, 100.0, 180.0], "includesElement__atomic_radius_rahm": [163.0, 214.0, 277.0], "includesElement__atomic_volume": [17.1, 15.5, 19.9], "includesElement__atomic_weight": [18.9984, 32.06, 157.25], "includesElement__covalent_radius_cordero": [57.0, 105.0, 196.0], "includesElement__covalent_radius_pyykko": [64.0, 103.0, 169.0], "includesElement__covalent_radius_pyykko_double": [59.0, 94.0, 135.0], "includesElement__covalent_radius_pyykko_triple": [53.0, 95.0, 132.0], "includesElement__density": [0.001553, 2.07, 7.9], "includesElement__dipole_polarizability": [3.74, 19.4, 158.0], "includesElement__dipole_polarizability_unc": [0.08, 0.1, 20.0], "includesElement__discovery_year": [1886, 1880], "includesElement__electron_affinity": [3.40119, 2.077104], "includesElement__electronegativity_allred-rochow": [0.001269531, 0.0005137148, 0.0001050383], "includesElement__electronegativity_cottrell-sutton": [0.2850439, 0.2300274, 0.1332347], "includesElement__electronegativity_ghosh": [0.344443, 0.23596, 0.1944], "includesElement__electronegativity_gordy": [0.08125, 0.05291262, 0.01775148], "includesElement__electronegativity_mulliken": [10.412, 6.218557, 3.074898], "includesElement__electronegativity_nagle": [1.232373, 0.6762644, 0.3985177], "includesElement__electronegativity_pauling": [3.98, 2.58, 1.2], "includesElement__electronegativity_sanderson": [1.017681, 0.6397251, 0.503386], "includesElement__en_ghosh": [0.344443, 0.23596, 0.1944], "includesElement__en_pauling": [3.98, 2.58, 1.2], "includesElement__evaporation_heat": [6.54, 10.5, 398.0], "includesElement__fusion_heat": [0.51, 1.23], "includesElement__glawe_number": [102, 96, 26], "includesElement__group_id": [17, 16], "includesElement__heat_of_formation": [79.335, 277.17, 397.5], "includesElement__is_radioactive": [false], "includesElement__mendeleev_number": [106, 100, 27], "includesElement__molar_heat_capacity": [31.304, 22.7, 37.03], "includesElement__period": [2, 3, 6], "includesElement__pettifor_number": [102, 94, 27], "includesElement__specific_heat_capacity": [0.824, 0.708, 0.236], "includesElement__vdw_radius": [147.0, 180.0, 234.0], "includesElement__vdw_radius_alvarez": [146.0, 189.0, 283.0], "includesElement__vdw_radius_mm3": [171.0, 215.0, 271.0], "includesElement__vdw_radius_uff": [336.4, 403.5, 336.8], "includesElement__abundance_sea": [1.3, 905.0, 7e-07], "includesElement__atomic_weight_uncertainty": [6e-09, 0.03], "includesElement__c6_gb": [10.2, 140.0, 2340.0], "includesElement__covalent_radius_bragg": [67.0, 102.0], "includesElement__electronegativity_allen": [24.8, 15.31], "includesElement__en_allen": [24.8, 15.31], "includesElement__thermal_conductivity": [0.028, 0.27], "includesElement__vdw_radius_batsanov": [150.0, 180.0], "includesElement__c6": [9.52, 134.0], "includesElement__is_monoisotopic": [true], "includesElement__vdw_radius_dreiding": [347.2, 403.0], "includesElement__gas_basicity": [315.1, 640.2], "includesElement__proton_affinity": [340.1, 664.3], "includesElement__vdw_radius_bondi": [147.0, 180.0], "includesElement__vdw_radius_rt": [146.0, 181.0], "includesElement__lattice_constant": [10.47, 3.64], "includesElement__metallic_radius": [104.0], "includesElement__metallic_radius_c12": [127.0], "formula": ["F2Gd2S2"], "spacegroup": ["129"], "thermalConductivity": [5.8914], "icsd": ["93355"], "band_gap": [0.0], "density": [6.864023], "density_atomic": [16.79834], "deprecated": [false], "efermi": [3.331], "energy_above_hull": [0.0], "energy_per_atom": [-21.47806], "formation_energy_per_atom": [-3.292841], "homogeneous_poisson": [0.285], "is_gap_direct": [false], "is_magnetic": [true], "is_metal": [true], "is_stable": [true], "nelements": [3], "nsites": [6], "num_magnetic_sites": [2], "num_unique_magnetic_sites": [1], "theoretical": [false], "total_magnetization": [14.0], "total_magnetization_normalized_formula_units": [7.0], "total_magnetization_normalized_vol": [0.1389026], "uncorrected_energy_per_atom": [-21.47806], "universal_anisotropy": [0.088], "volume": [100.79], "equilibrium_reaction_energy_per_atom": [-0.1478417]}