{"includesElement": ["", "O", "Zr", "Y"], "includesElement___series_id": [1, 8], "includesElement__abundance_crust": [461000.0, 165.0, 33.0], "includesElement__atomic_number": [8, 40, 39], "includesElement__atomic_radius": [60.0, 155.0, 180.0], "includesElement__atomic_radius_rahm": [171.0, 269.0, 274.0], "includesElement__atomic_volume": [14.0, 14.1, 19.8], "includesElement__atomic_weight": [15.999, 91.224, 88.90584], "includesElement__covalent_radius_cordero": [66.0, 175.0, 190.0], "includesElement__covalent_radius_pyykko": [63.0, 154.0, 163.0], "includesElement__covalent_radius_pyykko_double": [57.0, 127.0, 130.0], "includesElement__covalent_radius_pyykko_triple": [53.0, 121.0, 124.0], "includesElement__density": [0.001308, 6.52, 4.47], "includesElement__dipole_polarizability": [5.3, 112.0, 162.0], "includesElement__dipole_polarizability_unc": [0.2, 13.0, 12.0], "includesElement__discovery_year": [1774, 1789], "includesElement__electron_affinity": [1.461113, 0.426, 0.307], "includesElement__electronegativity_allred-rochow": [0.001146384, 0.0001328217, 0.0001129135], "includesElement__electronegativity_cottrell-sutton": [0.2687419, 0.1430194, 0.1356647], "includesElement__electronegativity_ghosh": [0.304575, 0.1248887, 0.1216986], "includesElement__electronegativity_gordy": [0.07222222, 0.02045455, 0.01840491], "includesElement__electronegativity_mulliken": [7.539584, 3.52995, 3.26213], "includesElement__electronegativity_nagle": [1.042218, 0.3293169, 0.2645668], "includesElement__electronegativity_pauling": [3.44, 1.33, 1.22], "includesElement__electronegativity_sanderson": [0.9416494, 0.4744467, 0.3923941], "includesElement__en_ghosh": [0.304575, 0.1248887, 0.1216986], "includesElement__en_pauling": [3.44, 1.33, 1.22], "includesElement__glawe_number": [97, 49, 21], "includesElement__group_id": [16, 4, 3], "includesElement__heat_of_formation": [249.229, 610.0, 424.7], "includesElement__is_radioactive": [false], "includesElement__lattice_constant": [6.83, 3.23, 3.65], "includesElement__mendeleev_number": [99, 44, 12], "includesElement__molar_heat_capacity": [29.378, 25.36, 26.53], "includesElement__period": [2, 5], "includesElement__pettifor_number": [101, 49, 19], "includesElement__specific_heat_capacity": [0.918, 0.278, 0.298], "includesElement__vdw_radius": [152.0, 223.0, 232.0], "includesElement__vdw_radius_alvarez": [150.0, 252.0, 275.0], "includesElement__vdw_radius_mm3": [182.0, 254.0, 271.0], "includesElement__vdw_radius_uff": [350.0, 312.4, 334.5], "includesElement__abundance_sea": [857000.0, 3e-05, 1.3e-05], "includesElement__c6_gb": [16.7, 1360.0, 2600.0], "includesElement__covalent_radius_bragg": [65.0], "includesElement__electronegativity_allen": [21.36, 7.808, 6.631], "includesElement__en_allen": [21.36, 7.808, 6.631], "includesElement__thermal_conductivity": [0.027, 22.7], "includesElement__vdw_radius_batsanov": [155.0, 230.0, 240.0], "includesElement__c6": [15.6], "includesElement__vdw_radius_dreiding": [340.46], "includesElement__gas_basicity": [459.6, 945.9], "includesElement__proton_affinity": [485.2, 967.0], "includesElement__vdw_radius_bondi": [152.0], "includesElement__vdw_radius_rt": [158.0], "includesElement__evaporation_heat": [567.0, 367.0], "includesElement__fusion_heat": [19.2, 11.5], "includesElement__atomic_weight_uncertainty": [0.002, 2e-05], "includesElement__metallic_radius": [145.0, 162.0], "includesElement__metallic_radius_c12": [160.0, 180.0], "includesElement__is_monoisotopic": [true], "formula": ["O14Y4Zr4"], "spacegroup": ["227"], "thermalConductivity": [6.58133], "icsd": ["153818"], "band_gap": [2.7008], "density": [5.255177], "density_atomic": [13.56582], "deprecated": [false], "efermi": [2.377073], "energy_above_hull": [0.05956963], "energy_per_atom": [-15.43508], "formation_energy_per_atom": [-3.81223], "homogeneous_poisson": [0.271], "is_gap_direct": [true], "is_magnetic": [false], "is_metal": [false], "is_stable": [false], "nelements": [3], "nsites": [22], "num_magnetic_sites": [0], "num_unique_magnetic_sites": [0], "theoretical": [true], "total_magnetization": [0.000237], "total_magnetization_normalized_formula_units": [0.0001185], "total_magnetization_normalized_vol": [7.94108e-07], "uncorrected_energy_per_atom": [-9.291066], "universal_anisotropy": [0.044], "volume": [298.4481], "cbm": [4.9909], "vbm": [2.2901]}