{"includesElement": ["", "Ba", "Li", "H"], "includesElement___series_id": [4, 3, 1], "includesElement__abundance_crust": [425.0, 20.0, 1400.0], "includesElement__atomic_number": [56, 3, 1], "includesElement__atomic_radius": [215.0, 145.0, 25.0], "includesElement__atomic_radius_rahm": [293.0, 220.0, 154.0], "includesElement__atomic_volume": [39.0, 13.1, 14.1], "includesElement__atomic_weight": [137.327, 6.94, 1.008], "includesElement__covalent_radius_cordero": [215.0, 128.0, 31.0], "includesElement__covalent_radius_pyykko": [196.0, 133.0, 32.0], "includesElement__covalent_radius_pyykko_double": [161.0, 124.0], "includesElement__covalent_radius_pyykko_triple": [149.0], "includesElement__density": [3.62, 0.534, 8.2e-05], "includesElement__dipole_polarizability": [272.0, 164.1125, 4.50711], "includesElement__dipole_polarizability_unc": [10.0, 0.0005, 3e-05], "includesElement__discovery_year": [1808, 1817, 1766], "includesElement__electron_affinity": [0.14462, 0.618049, 0.754195], "includesElement__electronegativity_allred-rochow": [7.418784e-05, 7.3492e-05, 0.0009765625], "includesElement__electronegativity_cottrell-sutton": [0.1205853, 0.09886575, 0.1767767], "includesElement__electronegativity_ghosh": [0.1586786, 0.105093, 0.2638], "includesElement__electronegativity_gordy": [0.01454082, 0.009774436, 0.03125], "includesElement__electronegativity_mulliken": [2.678142, 3.004882, 7.176315], "includesElement__electronegativity_nagle": [0.1944556, 0.1826499, 0.6053882], "includesElement__electronegativity_pauling": [0.89, 0.98, 2.2], "includesElement__electronegativity_sanderson": [0.3032951, 0.04886793, 2.187771], "includesElement__en_ghosh": [0.1586786, 0.105093, 0.2638], "includesElement__en_pauling": [0.89, 0.98, 2.2], "includesElement__evaporation_heat": [142.0, 148.0, 0.904], "includesElement__fusion_heat": [7.66, 2.89, 0.117], "includesElement__glawe_number": [14, 12, 103], "includesElement__group_id": [2, 1], "includesElement__heat_of_formation": [179.1, 159.3, 217.998], "includesElement__is_radioactive": [false], "includesElement__lattice_constant": [5.02, 3.49, 3.75], "includesElement__mendeleev_number": [9, 1, 105], "includesElement__molar_heat_capacity": [28.07, 24.86, 28.836], "includesElement__period": [6, 2, 1], "includesElement__pettifor_number": [14, 12, 103], "includesElement__specific_heat_capacity": [0.204, 3.582, 14.304], "includesElement__vdw_radius": [268.0, 182.0, 110.0], "includesElement__vdw_radius_alvarez": [303.0, 212.0, 120.0], "includesElement__vdw_radius_mm3": [307.0, 255.0, 162.0], "includesElement__vdw_radius_uff": [370.3, 245.1, 288.6], "includesElement__abundance_sea": [0.013, 0.18, 108000.0], "includesElement__atomic_weight_uncertainty": [0.007], "includesElement__c6_gb": [5540.0, 1410.0, 6.51], "includesElement__covalent_radius_bragg": [210.0, 150.0], "includesElement__electronegativity_allen": [5.211, 5.392, 13.61], "includesElement__en_allen": [5.211, 5.392, 13.61], "includesElement__metallic_radius": [198.0, 123.0], "includesElement__metallic_radius_c12": [222.0, 155.0, 78.0], "includesElement__vdw_radius_batsanov": [270.0, 220.0], "includesElement__vdw_radius_truhlar": [268.0], "includesElement__thermal_conductivity": [84.8, 0.1815], "includesElement__c6": [1392.0, 6.499027], "includesElement__vdw_radius_bondi": [181.0, 120.0], "includesElement__vdw_radius_dreiding": [319.5], "includesElement__vdw_radius_rt": [110.0], "formula": ["Ba1H3Li1"], "spacegroup": ["221"], "thermalConductivity": [0.769721], "icsd": ["23977"], "band_gap": [1.1987], "density": [1.881426], "density_atomic": [25.99983], "deprecated": [false], "efermi": [-1.34586], "energy_above_hull": [0.6205879], "energy_per_atom": [-2.791584], "formation_energy_per_atom": [0.01109591], "homogeneous_poisson": [0.329], "is_gap_direct": [false], "is_magnetic": [false], "is_metal": [false], "is_stable": [false], "nelements": [3], "nsites": [5], "num_magnetic_sites": [0], "num_unique_magnetic_sites": [0], "theoretical": [false], "total_magnetization": [0.0], "total_magnetization_normalized_formula_units": [0.0], "total_magnetization_normalized_vol": [0.0], "uncorrected_energy_per_atom": [-2.684184], "universal_anisotropy": [5.615], "volume": [129.9992], "cbm": [-0.3077], "vbm": [-1.5064]}