{"includesElement": ["", "Ca", "O", "Pd"], "includesElement___series_id": [4, 1, 8], "includesElement__abundance_crust": [41500.0, 461000.0, 0.015], "includesElement__atomic_number": [20, 8, 46], "includesElement__atomic_radius": [180.0, 60.0, 140.0], "includesElement__atomic_radius_rahm": [270.0, 171.0, 215.0], "includesElement__atomic_volume": [29.9, 14.0, 8.9], "includesElement__atomic_weight": [40.078, 15.999, 106.42], "includesElement__covalent_radius_cordero": [176.0, 66.0, 139.0], "includesElement__covalent_radius_pyykko": [171.0, 63.0, 120.0], "includesElement__covalent_radius_pyykko_double": [147.0, 57.0, 117.0], "includesElement__covalent_radius_pyykko_triple": [133.0, 53.0, 112.0], "includesElement__density": [1.54, 0.001308, 12.0], "includesElement__dipole_polarizability": [160.8, 5.3, 26.14], "includesElement__dipole_polarizability_unc": [4.0, 0.2, 0.1], "includesElement__discovery_year": [1808, 1774, 1803], "includesElement__electron_affinity": [0.02455, 1.461113, 0.562], "includesElement__electronegativity_allred-rochow": [9.746589e-05, 0.001146384, 0.0004756944], "includesElement__electronegativity_cottrell-sutton": [0.1290994, 0.2687419, 0.2389212], "includesElement__electronegativity_ghosh": [0.1154119, 0.304575, 0.1440276], "includesElement__electronegativity_gordy": [0.01666667, 0.07222222, 0.05708333], "includesElement__electronegativity_mulliken": [3.068853, 7.539584, 4.44943], "includesElement__electronegativity_nagle": [0.2316939, 1.042218, 0.7259357], "includesElement__electronegativity_pauling": [1.0, 3.44, 2.2], "includesElement__electronegativity_sanderson": [0.1901577, 0.9416494, 1.124263], "includesElement__en_ghosh": [0.1154119, 0.304575, 0.1440276], "includesElement__en_pauling": [1.0, 3.44, 2.2], "includesElement__evaporation_heat": [153.6, 372.4], "includesElement__fusion_heat": [9.2, 17.24], "includesElement__glawe_number": [16, 97, 65], "includesElement__group_id": [2, 16, 10], "includesElement__heat_of_formation": [177.8, 249.229, 376.6], "includesElement__is_radioactive": [false], "includesElement__lattice_constant": [5.58, 6.83, 3.89], "includesElement__mendeleev_number": [7, 99, 68], "includesElement__molar_heat_capacity": [25.929, 29.378, 25.98], "includesElement__period": [4, 2, 5], "includesElement__pettifor_number": [16, 101, 69], "includesElement__specific_heat_capacity": [0.647, 0.918, 0.246], "includesElement__vdw_radius": [231.0, 152.0, 210.0], "includesElement__vdw_radius_alvarez": [262.0, 150.0, 215.0], "includesElement__vdw_radius_mm3": [281.0, 182.0, 237.0], "includesElement__vdw_radius_uff": [339.9, 350.0, 289.9], "includesElement__abundance_sea": [412.0, 857000.0], "includesElement__atomic_weight_uncertainty": [0.004, 0.01], "includesElement__c6_gb": [2230.0, 16.7, 628.0], "includesElement__covalent_radius_bragg": [170.0, 65.0], "includesElement__electronegativity_allen": [6.113, 21.36, 9.402], "includesElement__en_allen": [6.113, 21.36, 9.402], "includesElement__metallic_radius": [174.0, 128.0], "includesElement__metallic_radius_c12": [197.0, 137.0], "includesElement__vdw_radius_batsanov": [240.0, 155.0, 205.0], "includesElement__c6": [2163.0, 15.6], "includesElement__vdw_radius_truhlar": [231.0], "includesElement__thermal_conductivity": [0.027, 71.8], "includesElement__vdw_radius_dreiding": [340.46], "includesElement__gas_basicity": [459.6, 673.4], "includesElement__proton_affinity": [485.2, 696.0], "includesElement__vdw_radius_bondi": [152.0], "includesElement__vdw_radius_rt": [158.0], "formula": ["Ca2O8Pd6"], "spacegroup": ["223"], "thermalConductivity": [1.90335], "icsd": ["16538"], "band_gap": [0.0], "density": [7.326711], "density_atomic": [11.99319], "deprecated": [false], "efermi": [3.857096], "energy_above_hull": [0.0], "energy_per_atom": [-13.84434], "formation_energy_per_atom": [-1.374055], "homogeneous_poisson": [0.348], "is_gap_direct": [false], "is_magnetic": [false], "is_metal": [true], "is_stable": [true], "nelements": [3], "nsites": [16], "num_magnetic_sites": [0], "num_unique_magnetic_sites": [0], "theoretical": [false], "total_magnetization": [1.4e-06], "total_magnetization_normalized_formula_units": [7e-07], "total_magnetization_normalized_vol": [7.295805e-09], "uncorrected_energy_per_atom": [-13.84434], "universal_anisotropy": [0.224], "volume": [191.8911], "equilibrium_reaction_energy_per_atom": [-0.1049072]}