{"includesElement": ["", "O", "Pt", "Co"], "includesElement___series_id": [1, 8], "includesElement__abundance_crust": [461000.0, 0.005, 25.0], "includesElement__atomic_number": [8, 78, 27], "includesElement__atomic_radius": [60.0, 135.0], "includesElement__atomic_radius_rahm": [171.0, 230.0, 233.0], "includesElement__atomic_volume": [14.0, 9.1, 6.7], "includesElement__atomic_weight": [15.999, 195.084, 58.93319], "includesElement__covalent_radius_cordero": [66.0, 136.0, 138.0], "includesElement__covalent_radius_pyykko": [63.0, 123.0, 111.0], "includesElement__covalent_radius_pyykko_double": [57.0, 112.0, 103.0], "includesElement__covalent_radius_pyykko_triple": [53.0, 110.0, 96.0], "includesElement__density": [0.001308, 21.5, 8.86], "includesElement__dipole_polarizability": [5.3, 48.0, 55.0], "includesElement__dipole_polarizability_unc": [0.2, 4.0], "includesElement__discovery_year": [1774, 1735, 1739], "includesElement__electron_affinity": [1.461113, 2.128, 0.6622565], "includesElement__electronegativity_allred-rochow": [0.001146384, 0.0002346487, 0.0003165327], "includesElement__electronegativity_cottrell-sutton": [0.2687419, 0.1698876, 0.1874437], "includesElement__electronegativity_ghosh": [0.304575, 0.25691, 0.1432363], "includesElement__electronegativity_gordy": [0.07222222, 0.02886179, 0.03513514], "includesElement__electronegativity_mulliken": [7.539584, 5.543415, 4.271633], "includesElement__electronegativity_nagle": [1.042218, 0.5928156, 0.5469655], "includesElement__electronegativity_pauling": [3.44, 2.2, 1.88], "includesElement__electronegativity_sanderson": [0.9416494, 1.45101, 0.8832424], "includesElement__en_ghosh": [0.304575, 0.25691, 0.1432363], "includesElement__en_pauling": [3.44, 2.2, 1.88], "includesElement__glawe_number": [97, 64, 70], "includesElement__group_id": [16, 10, 9], "includesElement__heat_of_formation": [249.229, 565.7, 426.7], "includesElement__is_radioactive": [false], "includesElement__lattice_constant": [6.83, 3.92, 2.51], "includesElement__mendeleev_number": [99, 69, 63], "includesElement__molar_heat_capacity": [29.378, 25.86, 24.81], "includesElement__period": [2, 6, 4], "includesElement__pettifor_number": [101, 68, 64], "includesElement__specific_heat_capacity": [0.918, 0.133, 0.421], "includesElement__vdw_radius": [152.0, 213.0, 200.0], "includesElement__vdw_radius_alvarez": [150.0, 229.0, 240.0], "includesElement__vdw_radius_mm3": [182.0, 239.0, 223.0], "includesElement__vdw_radius_uff": [350.0, 275.4, 287.2], "includesElement__abundance_sea": [857000.0, 2e-05], "includesElement__c6_gb": [16.7, 470.0, 461.0], "includesElement__covalent_radius_bragg": [65.0, 137.0], "includesElement__electronegativity_allen": [21.36, 10.16, 10.86], "includesElement__en_allen": [21.36, 10.16, 10.86], "includesElement__thermal_conductivity": [0.027, 71.6, 100.0], "includesElement__vdw_radius_batsanov": [155.0, 205.0, 200.0], "includesElement__c6": [15.6, 408.0], "includesElement__vdw_radius_dreiding": [340.46], "includesElement__gas_basicity": [459.6, 719.8], "includesElement__proton_affinity": [485.2, 742.7], "includesElement__vdw_radius_bondi": [152.0], "includesElement__vdw_radius_rt": [158.0], "includesElement__evaporation_heat": [470.0, 389.1], "includesElement__fusion_heat": [21.76, 15.48], "includesElement__atomic_weight_uncertainty": [0.009, 4e-06], "includesElement__metallic_radius": [130.0, 116.0], "includesElement__metallic_radius_c12": [139.0, 125.0], "includesElement__is_monoisotopic": [true], "formula": ["Co1O6Pt3"], "spacegroup": ["65"], "thermalConductivity": [4.44125], "icsd": ["35338"], "band_gap": [0.1366], "density": [10.97894], "density_atomic": [11.19508], "deprecated": [false], "efermi": [5.088728], "energy_above_hull": [0.0], "energy_per_atom": [-6.524561], "formation_energy_per_atom": [-1.018522], "is_gap_direct": [false], "is_magnetic": [true], "is_metal": [false], "is_stable": [true], "nelements": [3], "nsites": [40], "num_magnetic_sites": [1], "num_unique_magnetic_sites": [1], "theoretical": [false], "total_magnetization": [12.0], "total_magnetization_normalized_formula_units": [3.0], "total_magnetization_normalized_vol": [0.02679749], "uncorrected_energy_per_atom": [-21.11883], "volume": [447.8032], "cbm": [5.1542], "e_electronic": [15.8577], "e_ionic": [2.34827], "e_total": [18.20597], "equilibrium_reaction_energy_per_atom": [-0.05100824], "n": [3.982173], "vbm": [5.0176]}