{"includesElement": ["", "Se", "O", "Th"], "includesElement___series_id": [1, 10], "includesElement__abundance_crust": [0.05, 461000.0, 9.6], "includesElement__atomic_number": [34, 8, 90], "includesElement__atomic_radius": [115.0, 60.0, 180.0], "includesElement__atomic_radius_rahm": [224.0, 171.0, 288.0], "includesElement__atomic_volume": [16.5, 14.0, 19.8], "includesElement__atomic_weight": [78.971, 15.999, 232.0377], "includesElement__covalent_radius_cordero": [120.0, 66.0, 206.0], "includesElement__covalent_radius_pyykko": [116.0, 63.0, 175.0], "includesElement__covalent_radius_pyykko_double": [107.0, 57.0, 143.0], "includesElement__covalent_radius_pyykko_triple": [107.0, 53.0, 136.0], "includesElement__density": [4.809, 0.001308, 11.7], "includesElement__dipole_polarizability": [28.9, 5.3, 217.0], "includesElement__dipole_polarizability_unc": [1.0, 0.2, 54.0], "includesElement__discovery_year": [1818, 1774, 1828], "includesElement__electron_affinity": [2.02067, 1.461113], "includesElement__electronegativity_allred-rochow": [0.0005164982, 0.001146384, 0.0001028571], "includesElement__electronegativity_cottrell-sutton": [0.2447729, 0.2687419, 0.1341641], "includesElement__electronegativity_ghosh": [0.2240328, 0.304575, 0.10277], "includesElement__electronegativity_gordy": [0.05991379, 0.07222222, 0.018], "includesElement__electronegativity_mulliken": [5.886531, 7.539584, 3.15335], "includesElement__electronegativity_nagle": [0.592131, 1.042218, 0.2641598], "includesElement__electronegativity_pauling": [2.55, 3.44, 1.3], "includesElement__electronegativity_sanderson": [0.9659121, 0.9416494, 0.5557019], "includesElement__en_ghosh": [0.2240328, 0.304575, 0.10277], "includesElement__en_pauling": [2.55, 3.44, 1.3], "includesElement__evaporation_heat": [59.7, 513.7], "includesElement__fusion_heat": [5.23, 16.11], "includesElement__glawe_number": [95, 97, 34], "includesElement__group_id": [16], "includesElement__heat_of_formation": [227.2, 249.229, 602.0], "includesElement__is_radioactive": [false, true], "includesElement__lattice_constant": [4.36, 6.83, 5.08], "includesElement__mendeleev_number": [101, 99, 16], "includesElement__molar_heat_capacity": [25.363, 29.378, 27.32], "includesElement__period": [4, 2, 7], "includesElement__pettifor_number": [93, 101, 47], "includesElement__specific_heat_capacity": [0.321, 0.918, 0.118], "includesElement__vdw_radius": [190.0, 152.0, 245.0], "includesElement__vdw_radius_alvarez": [182.0, 150.0, 293.0], "includesElement__vdw_radius_mm3": [229.0, 182.0, 274.0], "includesElement__vdw_radius_uff": [420.5, 350.0, 339.6], "includesElement__abundance_sea": [0.0002, 857000.0, 1e-06], "includesElement__atomic_weight_uncertainty": [0.008, 0.0004], "includesElement__c6_gb": [233.0, 16.7], "includesElement__covalent_radius_bragg": [117.0, 65.0], "includesElement__electronegativity_allen": [14.34, 21.36], "includesElement__en_allen": [14.34, 21.36], "includesElement__metallic_radius": [117.0], "includesElement__metallic_radius_c12": [140.0], "includesElement__thermal_conductivity": [0.52, 0.027], "includesElement__vdw_radius_batsanov": [190.0, 155.0, 240.0], "includesElement__c6": [210.0, 15.6], "includesElement__vdw_radius_dreiding": [403.0, 340.46], "includesElement__vdw_radius_bondi": [190.0, 152.0], "includesElement__gas_basicity": [459.6], "includesElement__proton_affinity": [485.2], "includesElement__vdw_radius_rt": [158.0], "formula": ["O2Se2Th2"], "spacegroup": ["129"], "thermalConductivity": [6.7443], "icsd": ["26654"], "band_gap": [0.769], "density": [9.415369], "density_atomic": [19.22361], "deprecated": [false], "efermi": [6.360506], "energy_above_hull": [0.0], "energy_per_atom": [-8.59014], "formation_energy_per_atom": [-3.302795], "is_gap_direct": [true], "is_magnetic": [false], "is_metal": [false], "is_stable": [true], "nelements": [3], "nsites": [6], "num_magnetic_sites": [0], "num_unique_magnetic_sites": [0], "theoretical": [false], "total_magnetization": [0.0], "total_magnetization_normalized_formula_units": [0.0], "total_magnetization_normalized_vol": [0.0], "uncorrected_energy_per_atom": [-34.49696], "volume": [115.3416], "cbm": [7.0759], "equilibrium_reaction_energy_per_atom": [-0.09784826], "vbm": [6.3069]}