{"includesElement": ["", "Ca", "Ge", "Rh"], "includesElement___series_id": [4, 5, 8], "includesElement__abundance_crust": [41500.0, 1.5, 0.001], "includesElement__atomic_number": [20, 32, 45], "includesElement__atomic_radius": [180.0, 125.0, 135.0], "includesElement__atomic_radius_rahm": [270.0, 234.0, 233.0], "includesElement__atomic_volume": [29.9, 13.6, 8.3], "includesElement__atomic_weight": [40.078, 72.63, 102.9055], "includesElement__covalent_radius_cordero": [176.0, 120.0, 142.0], "includesElement__covalent_radius_pyykko": [171.0, 121.0, 125.0], "includesElement__covalent_radius_pyykko_double": [147.0, 111.0, 110.0], "includesElement__covalent_radius_pyykko_triple": [133.0, 114.0, 106.0], "includesElement__density": [1.54, 5.3234, 12.4], "includesElement__dipole_polarizability": [160.8, 40.0, 66.0], "includesElement__dipole_polarizability_unc": [4.0, 1.0, 10.0], "includesElement__discovery_year": [1808, 1886, 1803], "includesElement__electron_affinity": [0.02455, 1.232712, 1.137], "includesElement__electronegativity_allred-rochow": [9.746589e-05, 0.0003859026, 0.0002176], "includesElement__electronegativity_cottrell-sutton": [0.1290994, 0.2160884, 0.1649242], "includesElement__electronegativity_ghosh": [0.1154119, 0.1895892, 0.1408379], "includesElement__electronegativity_gordy": [0.01666667, 0.04669421, 0.0272], "includesElement__electronegativity_mulliken": [3.068853, 4.566073, 4.29795], "includesElement__electronegativity_nagle": [0.2316939, 0.4641589, 0.5147142], "includesElement__electronegativity_pauling": [1.0, 2.01, 2.28], "includesElement__electronegativity_sanderson": [0.1901577, 0.8001471, 0.9761915], "includesElement__en_ghosh": [0.1154119, 0.1895892, 0.1408379], "includesElement__en_pauling": [1.0, 2.01, 2.28], "includesElement__evaporation_heat": [153.6, 328.0, 494.0], "includesElement__fusion_heat": [9.2, 36.8, 21.8], "includesElement__glawe_number": [16, 84, 63], "includesElement__group_id": [2, 14, 9], "includesElement__heat_of_formation": [177.8, 372.0, 556.0], "includesElement__is_radioactive": [false], "includesElement__lattice_constant": [5.58, 5.66, 3.8], "includesElement__mendeleev_number": [7, 89, 64], "includesElement__molar_heat_capacity": [25.929, 23.222, 24.98], "includesElement__period": [4, 5], "includesElement__pettifor_number": [16, 84, 66], "includesElement__specific_heat_capacity": [0.647, 0.32, 0.243], "includesElement__vdw_radius": [231.0, 211.0, 210.0], "includesElement__vdw_radius_alvarez": [262.0, 229.0, 244.0], "includesElement__vdw_radius_mm3": [281.0, 244.0, 234.0], "includesElement__vdw_radius_uff": [339.9, 428.0, 292.9], "includesElement__abundance_sea": [412.0, 5e-05], "includesElement__atomic_weight_uncertainty": [0.004, 0.008, 2e-05], "includesElement__c6_gb": [2230.0, 365.0, 708.0], "includesElement__covalent_radius_bragg": [170.0], "includesElement__electronegativity_allen": [6.113, 11.8, 9.259], "includesElement__en_allen": [6.113, 11.8, 9.259], "includesElement__metallic_radius": [174.0, 124.0, 125.0], "includesElement__metallic_radius_c12": [197.0, 144.0, 134.0], "includesElement__vdw_radius_batsanov": [240.0, 210.0, 200.0], "includesElement__c6": [2163.0, 354.0], "includesElement__vdw_radius_truhlar": [231.0, 211.0], "includesElement__thermal_conductivity": [60.2, 150.0], "includesElement__vdw_radius_dreiding": [427.0], "includesElement__is_monoisotopic": [true], "includesElement__gas_basicity": [745.4], "includesElement__proton_affinity": [768.0], "formula": ["Ca1Ge2Rh2"], "spacegroup": ["139"], "thermalConductivity": [7.01438], "icsd": ["52760"], "band_gap": [0.0], "density": [7.257376], "density_atomic": [17.90045], "deprecated": [false], "efermi": [5.829417], "energy_above_hull": [0.0], "energy_per_atom": [-17.47979], "formation_energy_per_atom": [-0.8688451], "is_gap_direct": [false], "is_magnetic": [false], "is_metal": [true], "is_stable": [true], "nelements": [3], "nsites": [5], "num_magnetic_sites": [0], "num_unique_magnetic_sites": [0], "theoretical": [false], "total_magnetization": [0.0], "total_magnetization_normalized_formula_units": [0.0], "total_magnetization_normalized_vol": [0.0], "uncorrected_energy_per_atom": [-17.47979], "volume": [89.50224], "equilibrium_reaction_energy_per_atom": [-0.2812981]}