{"includesElement": ["", "Ba", "O", "Th"], "includesElement___series_id": [4, 1, 10], "includesElement__abundance_crust": [425.0, 461000.0, 9.6], "includesElement__atomic_number": [56, 8, 90], "includesElement__atomic_radius": [215.0, 60.0, 180.0], "includesElement__atomic_radius_rahm": [293.0, 171.0, 288.0], "includesElement__atomic_volume": [39.0, 14.0, 19.8], "includesElement__atomic_weight": [137.327, 15.999, 232.0377], "includesElement__covalent_radius_cordero": [215.0, 66.0, 206.0], "includesElement__covalent_radius_pyykko": [196.0, 63.0, 175.0], "includesElement__covalent_radius_pyykko_double": [161.0, 57.0, 143.0], "includesElement__covalent_radius_pyykko_triple": [149.0, 53.0, 136.0], "includesElement__density": [3.62, 0.001308, 11.7], "includesElement__dipole_polarizability": [272.0, 5.3, 217.0], "includesElement__dipole_polarizability_unc": [10.0, 0.2, 54.0], "includesElement__discovery_year": [1808, 1774, 1828], "includesElement__electron_affinity": [0.14462, 1.461113], "includesElement__electronegativity_allred-rochow": [7.418784e-05, 0.001146384, 0.0001028571], "includesElement__electronegativity_cottrell-sutton": [0.1205853, 0.2687419, 0.1341641], "includesElement__electronegativity_ghosh": [0.1586786, 0.304575, 0.10277], "includesElement__electronegativity_gordy": [0.01454082, 0.07222222, 0.018], "includesElement__electronegativity_mulliken": [2.678142, 7.539584, 3.15335], "includesElement__electronegativity_nagle": [0.1944556, 1.042218, 0.2641598], "includesElement__electronegativity_pauling": [0.89, 3.44, 1.3], "includesElement__electronegativity_sanderson": [0.3032951, 0.9416494, 0.5557019], "includesElement__en_ghosh": [0.1586786, 0.304575, 0.10277], "includesElement__en_pauling": [0.89, 3.44, 1.3], "includesElement__evaporation_heat": [142.0, 513.7], "includesElement__fusion_heat": [7.66, 16.11], "includesElement__glawe_number": [14, 97, 34], "includesElement__group_id": [2, 16], "includesElement__heat_of_formation": [179.1, 249.229, 602.0], "includesElement__is_radioactive": [false, true], "includesElement__lattice_constant": [5.02, 6.83, 5.08], "includesElement__mendeleev_number": [9, 99, 16], "includesElement__molar_heat_capacity": [28.07, 29.378, 27.32], "includesElement__period": [6, 2, 7], "includesElement__pettifor_number": [14, 101, 47], "includesElement__specific_heat_capacity": [0.204, 0.918, 0.118], "includesElement__vdw_radius": [268.0, 152.0, 245.0], "includesElement__vdw_radius_alvarez": [303.0, 150.0, 293.0], "includesElement__vdw_radius_mm3": [307.0, 182.0, 274.0], "includesElement__vdw_radius_uff": [370.3, 350.0, 339.6], "includesElement__abundance_sea": [0.013, 857000.0, 1e-06], "includesElement__atomic_weight_uncertainty": [0.007, 0.0004], "includesElement__c6_gb": [5540.0, 16.7], "includesElement__covalent_radius_bragg": [210.0, 65.0], "includesElement__electronegativity_allen": [5.211, 21.36], "includesElement__en_allen": [5.211, 21.36], "includesElement__metallic_radius": [198.0], "includesElement__metallic_radius_c12": [222.0], "includesElement__vdw_radius_batsanov": [270.0, 155.0, 240.0], "includesElement__vdw_radius_truhlar": [268.0], "includesElement__thermal_conductivity": [0.027], "includesElement__c6": [15.6], "includesElement__vdw_radius_dreiding": [340.46], "includesElement__gas_basicity": [459.6], "includesElement__proton_affinity": [485.2], "includesElement__vdw_radius_bondi": [152.0], "includesElement__vdw_radius_rt": [158.0], "formula": ["Ba1O3Th1"], "spacegroup": ["221"], "thermalConductivity": [8.21256], "icsd": ["29110"], "band_gap": [3.2033], "density": [7.119627], "density_atomic": [19.46866], "deprecated": [false], "efermi": [2.97104], "energy_above_hull": [0.08340609], "energy_per_atom": [-8.527033], "formation_energy_per_atom": [-3.689108], "homogeneous_poisson": [0.302], "is_gap_direct": [true], "is_magnetic": [false], "is_metal": [false], "is_stable": [false], "nelements": [3], "nsites": [5], "num_magnetic_sites": [0], "num_unique_magnetic_sites": [0], "theoretical": [false], "total_magnetization": [0.0], "total_magnetization_normalized_formula_units": [0.0], "total_magnetization_normalized_vol": [0.0], "uncorrected_energy_per_atom": [-8.114833], "universal_anisotropy": [0.44], "volume": [97.3433], "cbm": [6.1077], "vbm": [2.9044]}