{"includesElement": ["", "Rh", "Pu", "C"], "includesElement___series_id": [8, 10, 1], "includesElement__abundance_crust": [0.001, 200.0], "includesElement__atomic_number": [45, 94, 6], "includesElement__atomic_radius": [135.0, 175.0, 70.0], "includesElement__atomic_radius_rahm": [233.0, 278.0, 190.0], "includesElement__atomic_volume": [8.3, 5.3], "includesElement__atomic_weight": [102.9055, 244.0, 12.011], "includesElement__covalent_radius_cordero": [142.0, 187.0, 73.0], "includesElement__covalent_radius_pyykko": [125.0, 172.0, 75.0], "includesElement__covalent_radius_pyykko_double": [110.0, 135.0, 67.0], "includesElement__covalent_radius_pyykko_triple": [106.0, 60.0], "includesElement__density": [12.4, 19.7, 2.2], "includesElement__dipole_polarizability": [66.0, 132.0, 11.3], "includesElement__dipole_polarizability_unc": [10.0, 20.0, 0.2], "includesElement__discovery_year": [1803, 1940], "includesElement__electron_affinity": [1.137, 1.262119], "includesElement__electronegativity_allred-rochow": [0.0002176, 9.633586e-05, 0.0005777778], "includesElement__electronegativity_cottrell-sutton": [0.1649242, 0.1287236, 0.2081666], "includesElement__electronegativity_ghosh": [0.1408379, 0.16137, 0.224776], "includesElement__electronegativity_gordy": [0.0272, 0.01656977, 0.04333333], "includesElement__electronegativity_mulliken": [4.29795, 3.0129, 6.261208], "includesElement__electronegativity_nagle": [0.5147142, 0.3928005, 0.7073926], "includesElement__electronegativity_pauling": [2.28, 1.3, 2.55], "includesElement__electronegativity_sanderson": [0.9761915, 0.6084717, 0.427525], "includesElement__en_ghosh": [0.1408379, 0.16137, 0.224776], "includesElement__en_pauling": [2.28, 1.3, 2.55], "includesElement__evaporation_heat": [494.0, 343.5], "includesElement__fusion_heat": [21.8, 2.8], "includesElement__glawe_number": [63, 38, 87], "includesElement__group_id": [9, 14], "includesElement__heat_of_formation": [556.0, 345.0, 716.87], "includesElement__is_radioactive": [false, true], "includesElement__lattice_constant": [3.8, 3.57], "includesElement__mendeleev_number": [64, 24, 87], "includesElement__molar_heat_capacity": [24.98, 8.517], "includesElement__period": [5, 7, 2], "includesElement__pettifor_number": [66, 43, 95], "includesElement__specific_heat_capacity": [0.243, 0.709], "includesElement__vdw_radius": [210.0, 243.0, 170.0], "includesElement__vdw_radius_alvarez": [244.0, 281.0, 177.0], "includesElement__vdw_radius_mm3": [234.0, 252.0, 204.0], "includesElement__vdw_radius_uff": [292.9, 342.4, 385.1], "includesElement__atomic_weight_uncertainty": [2e-05], "includesElement__c6_gb": [708.0, 47.9], "includesElement__electronegativity_allen": [9.259, 15.05], "includesElement__en_allen": [9.259, 15.05], "includesElement__metallic_radius": [125.0], "includesElement__metallic_radius_c12": [134.0, 86.0], "includesElement__thermal_conductivity": [150.0, 1.59], "includesElement__vdw_radius_batsanov": [200.0, 170.0], "includesElement__is_monoisotopic": [true], "includesElement__gas_basicity": [745.4], "includesElement__proton_affinity": [768.0], "includesElement__abundance_sea": [28.0], "includesElement__covalent_radius_bragg": [77.0], "includesElement__c6": [46.6], "includesElement__vdw_radius_dreiding": [389.83], "includesElement__vdw_radius_bondi": [170.0], "includesElement__vdw_radius_rt": [177.0], "formula": ["C1Pu1Rh3"], "spacegroup": ["221"], "thermalConductivity": [0.544656], "icsd": ["108181"], "band_gap": [0.0], "density": [12.72899], "density_atomic": [14.73411], "deprecated": [false], "efermi": [9.164461], "energy_above_hull": [0.1207664], "energy_per_atom": [-9.32801], "formation_energy_per_atom": [-0.1161061], "is_gap_direct": [false], "is_magnetic": [true], "is_metal": [true], "is_stable": [false], "nelements": [3], "nsites": [5], "num_magnetic_sites": [1], "num_unique_magnetic_sites": [1], "theoretical": [false], "total_magnetization": [4.879619], "total_magnetization_normalized_formula_units": [4.879619], "total_magnetization_normalized_vol": [0.06623568], "uncorrected_energy_per_atom": [-34.10747], "volume": [73.67054]}