{"includesElement": ["", "O", "Zr", "Gd"], "includesElement___series_id": [1, 8, 9], "includesElement__abundance_crust": [461000.0, 165.0, 6.2], "includesElement__atomic_number": [8, 40, 64], "includesElement__atomic_radius": [60.0, 155.0, 180.0], "includesElement__atomic_radius_rahm": [171.0, 269.0, 277.0], "includesElement__atomic_volume": [14.0, 14.1, 19.9], "includesElement__atomic_weight": [15.999, 91.224, 157.25], "includesElement__covalent_radius_cordero": [66.0, 175.0, 196.0], "includesElement__covalent_radius_pyykko": [63.0, 154.0, 169.0], "includesElement__covalent_radius_pyykko_double": [57.0, 127.0, 135.0], "includesElement__covalent_radius_pyykko_triple": [53.0, 121.0, 132.0], "includesElement__density": [0.001308, 6.52, 7.9], "includesElement__dipole_polarizability": [5.3, 112.0, 158.0], "includesElement__dipole_polarizability_unc": [0.2, 13.0, 20.0], "includesElement__discovery_year": [1774, 1789, 1880], "includesElement__electron_affinity": [1.461113, 0.426], "includesElement__electronegativity_allred-rochow": [0.001146384, 0.0001328217, 0.0001050383], "includesElement__electronegativity_cottrell-sutton": [0.2687419, 0.1430194, 0.1332347], "includesElement__electronegativity_ghosh": [0.304575, 0.1248887, 0.1944], "includesElement__electronegativity_gordy": [0.07222222, 0.02045455, 0.01775148], "includesElement__electronegativity_mulliken": [7.539584, 3.52995, 3.074898], "includesElement__electronegativity_nagle": [1.042218, 0.3293169, 0.3985177], "includesElement__electronegativity_pauling": [3.44, 1.33, 1.2], "includesElement__electronegativity_sanderson": [0.9416494, 0.4744467, 0.503386], "includesElement__en_ghosh": [0.304575, 0.1248887, 0.1944], "includesElement__en_pauling": [3.44, 1.33, 1.2], "includesElement__glawe_number": [97, 49, 26], "includesElement__group_id": [16, 4], "includesElement__heat_of_formation": [249.229, 610.0, 397.5], "includesElement__is_radioactive": [false], "includesElement__lattice_constant": [6.83, 3.23, 3.64], "includesElement__mendeleev_number": [99, 44, 27], "includesElement__molar_heat_capacity": [29.378, 25.36, 37.03], "includesElement__period": [2, 5, 6], "includesElement__pettifor_number": [101, 49, 27], "includesElement__specific_heat_capacity": [0.918, 0.278, 0.236], "includesElement__vdw_radius": [152.0, 223.0, 234.0], "includesElement__vdw_radius_alvarez": [150.0, 252.0, 283.0], "includesElement__vdw_radius_mm3": [182.0, 254.0, 271.0], "includesElement__vdw_radius_uff": [350.0, 312.4, 336.8], "includesElement__abundance_sea": [857000.0, 3e-05, 7e-07], "includesElement__c6_gb": [16.7, 1360.0, 2340.0], "includesElement__covalent_radius_bragg": [65.0], "includesElement__electronegativity_allen": [21.36, 7.808], "includesElement__en_allen": [21.36, 7.808], "includesElement__thermal_conductivity": [0.027, 22.7], "includesElement__vdw_radius_batsanov": [155.0, 230.0], "includesElement__c6": [15.6], "includesElement__vdw_radius_dreiding": [340.46], "includesElement__gas_basicity": [459.6], "includesElement__proton_affinity": [485.2], "includesElement__vdw_radius_bondi": [152.0], "includesElement__vdw_radius_rt": [158.0], "includesElement__evaporation_heat": [567.0, 398.0], "includesElement__fusion_heat": [19.2], "includesElement__atomic_weight_uncertainty": [0.002, 0.03], "includesElement__metallic_radius": [145.0], "includesElement__metallic_radius_c12": [160.0], "formula": ["Gd4O14Zr4"], "spacegroup": ["227"], "thermalConductivity": [5.79357], "icsd": ["188035"], "band_gap": [2.779], "density": [6.844702], "density_atomic": [13.4301], "deprecated": [false], "efermi": [2.105762], "energy_above_hull": [0.0], "energy_per_atom": [-19.60594], "formation_energy_per_atom": [-3.786105], "homogeneous_poisson": [0.25], "is_gap_direct": [false], "is_magnetic": [true], "is_metal": [false], "is_stable": [true], "nelements": [3], "nsites": [22], "num_magnetic_sites": [4], "num_unique_magnetic_sites": [1], "theoretical": [true], "total_magnetization": [0.0], "total_magnetization_normalized_formula_units": [0.0], "total_magnetization_normalized_vol": [0.0], "uncorrected_energy_per_atom": [-19.60594], "universal_anisotropy": [185500.1], "volume": [295.4621], "cbm": [4.8711], "equilibrium_reaction_energy_per_atom": [-0.01360028], "vbm": [2.0921]}