{"includesElement": ["", "Cu", "Rb", "C"], "includesElement___series_id": [8, 3, 1], "includesElement__abundance_crust": [60.0, 90.0, 200.0], "includesElement__atomic_number": [29, 37, 6], "includesElement__atomic_radius": [135.0, 235.0, 70.0], "includesElement__atomic_radius_rahm": [217.0, 240.0, 190.0], "includesElement__atomic_volume": [7.1, 55.9, 5.3], "includesElement__atomic_weight": [63.546, 85.4678, 12.011], "includesElement__covalent_radius_cordero": [132.0, 220.0, 73.0], "includesElement__covalent_radius_pyykko": [112.0, 210.0, 75.0], "includesElement__covalent_radius_pyykko_double": [115.0, 202.0, 67.0], "includesElement__covalent_radius_pyykko_triple": [120.0, 60.0], "includesElement__density": [8.96, 1.53, 2.2], "includesElement__dipole_polarizability": [46.5, 319.8, 11.3], "includesElement__dipole_polarizability_unc": [0.5, 0.3, 0.2], "includesElement__electron_affinity": [1.235, 0.48592, 1.262119], "includesElement__electronegativity_allred-rochow": [0.0002949617, 4.988662e-05, 0.0005777778], "includesElement__electronegativity_cottrell-sutton": [0.1817573, 0.1023533, 0.2081666], "includesElement__electronegativity_ghosh": [0.1511716, 0.104686, 0.224776], "includesElement__electronegativity_gordy": [0.03303571, 0.01047619, 0.04333333], "includesElement__electronegativity_mulliken": [4.48069, 2.331524, 6.261208], "includesElement__electronegativity_nagle": [0.6184623, 0.1462314, 0.7073926], "includesElement__electronegativity_pauling": [1.9, 0.82, 2.55], "includesElement__electronegativity_sanderson": [0.9175542, 0.1764136, 0.427525], "includesElement__en_ghosh": [0.1511716, 0.104686, 0.224776], "includesElement__en_pauling": [1.9, 0.82, 2.55], "includesElement__evaporation_heat": [304.6, 75.8], "includesElement__fusion_heat": [13.01, 2.2], "includesElement__glawe_number": [68, 9, 87], "includesElement__group_id": [11, 1, 14], "includesElement__heat_of_formation": [337.4, 80.9, 716.87], "includesElement__is_radioactive": [false], "includesElement__lattice_constant": [3.61, 5.59, 3.57], "includesElement__mendeleev_number": [71, 4, 87], "includesElement__molar_heat_capacity": [24.44, 31.06, 8.517], "includesElement__period": [4, 5, 2], "includesElement__pettifor_number": [72, 9, 95], "includesElement__specific_heat_capacity": [0.385, 0.363, 0.709], "includesElement__vdw_radius": [196.0, 303.0, 170.0], "includesElement__vdw_radius_alvarez": [238.0, 321.0, 177.0], "includesElement__vdw_radius_mm3": [226.0, 325.0, 204.0], "includesElement__vdw_radius_uff": [349.5, 411.4, 385.1], "includesElement__abundance_sea": [0.00025, 0.12, 28.0], "includesElement__atomic_weight_uncertainty": [0.003, 0.0003], "includesElement__c6_gb": [264.0, 4660.0, 47.9], "includesElement__covalent_radius_bragg": [137.0, 225.0, 77.0], "includesElement__electronegativity_allen": [10.96, 4.177, 15.05], "includesElement__en_allen": [10.96, 4.177, 15.05], "includesElement__metallic_radius": [118.0, 216.0], "includesElement__metallic_radius_c12": [128.0, 248.0, 86.0], "includesElement__thermal_conductivity": [401.0, 58.2, 1.59], "includesElement__vdw_radius_batsanov": [200.0, 290.0, 170.0], "includesElement__c6": [253.0, 4769.0, 46.6], "includesElement__gas_basicity": [632.4], "includesElement__proton_affinity": [655.3], "includesElement__discovery_year": [1861], "includesElement__vdw_radius_truhlar": [303.0], "includesElement__vdw_radius_dreiding": [389.83], "includesElement__vdw_radius_bondi": [170.0], "includesElement__vdw_radius_rt": [177.0], "formula": ["C2Cu1Rb1"], "spacegroup": ["123"], "thermalConductivity": [4.80304], "icsd": ["391118"], "band_gap": [1.8861], "density": [2.817457], "density_atomic": [25.49566], "deprecated": [false], "efermi": [-0.2754208], "energy_above_hull": [0.3024677], "energy_per_atom": [-5.601118], "formation_energy_per_atom": [0.2831495], "homogeneous_poisson": [0.167], "is_gap_direct": [false], "is_magnetic": [false], "is_metal": [false], "is_stable": [false], "nelements": [3], "nsites": [4], "num_magnetic_sites": [0], "num_unique_magnetic_sites": [0], "theoretical": [false], "total_magnetization": [0.0], "total_magnetization_normalized_formula_units": [0.0], "total_magnetization_normalized_vol": [0.0], "uncorrected_energy_per_atom": [-5.601118], "universal_anisotropy": [45.92], "volume": [101.9826], "cbm": [1.4588], "vbm": [-0.4273]}