{"includesElement": ["", "Ba", "Ag", "Te"], "includesElement___series_id": [4, 8, 5], "includesElement__abundance_crust": [425.0, 0.075, 0.001], "includesElement__atomic_number": [56, 47, 52], "includesElement__atomic_radius": [215.0, 160.0, 140.0], "includesElement__atomic_radius_rahm": [293.0, 225.0, 242.0], "includesElement__atomic_volume": [39.0, 10.3, 20.5], "includesElement__atomic_weight": [137.327, 107.8682, 127.6], "includesElement__covalent_radius_cordero": [215.0, 145.0, 138.0], "includesElement__covalent_radius_pyykko": [196.0, 128.0, 136.0], "includesElement__covalent_radius_pyykko_double": [161.0, 139.0, 128.0], "includesElement__covalent_radius_pyykko_triple": [149.0, 137.0, 121.0], "includesElement__density": [3.62, 10.5, 6.232], "includesElement__dipole_polarizability": [272.0, 55.0, 38.0], "includesElement__dipole_polarizability_unc": [10.0, 8.0, 4.0], "includesElement__discovery_year": [1808, 1782], "includesElement__electron_affinity": [0.14462, 1.302, 1.970876], "includesElement__electronegativity_allred-rochow": [7.418784e-05, 0.0002258301, 0.0003757569], "includesElement__electronegativity_cottrell-sutton": [0.1205853, 0.1700184, 0.2260596], "includesElement__electronegativity_ghosh": [0.1586786, 0.1472165, 0.2056992], "includesElement__electronegativity_gordy": [0.01454082, 0.02890625, 0.05110294], "includesElement__electronegativity_mulliken": [2.678142, 4.439117, 5.490268], "includesElement__electronegativity_nagle": [0.1944556, 0.5848035, 0.5404919], "includesElement__electronegativity_pauling": [0.89, 1.93, 2.1], "includesElement__electronegativity_sanderson": [0.3032951, 0.9437955, 0.8622506], "includesElement__en_ghosh": [0.1586786, 0.1472165, 0.2056992], "includesElement__en_pauling": [0.89, 1.93, 2.1], "includesElement__evaporation_heat": [142.0, 254.1, 49.8], "includesElement__fusion_heat": [7.66, 11.95, 17.91], "includesElement__glawe_number": [14, 67, 94], "includesElement__group_id": [2, 11, 16], "includesElement__heat_of_formation": [179.1, 284.9, 196.6], "includesElement__is_radioactive": [false], "includesElement__lattice_constant": [5.02, 4.09, 4.45], "includesElement__mendeleev_number": [9, 72, 102], "includesElement__molar_heat_capacity": [28.07, 25.35, 25.73], "includesElement__period": [6, 5], "includesElement__pettifor_number": [14, 71, 92], "includesElement__specific_heat_capacity": [0.204, 0.235, 0.202], "includesElement__vdw_radius": [268.0, 211.0, 206.0], "includesElement__vdw_radius_alvarez": [303.0, 253.0, 199.0], "includesElement__vdw_radius_mm3": [307.0, 243.0, 244.0], "includesElement__vdw_radius_uff": [370.3, 314.8, 447.0], "includesElement__abundance_sea": [0.013, 4e-05], "includesElement__atomic_weight_uncertainty": [0.007, 0.0002, 0.03], "includesElement__c6_gb": [5540.0, 341.0, 471.0], "includesElement__covalent_radius_bragg": [210.0, 177.0, 133.0], "includesElement__electronegativity_allen": [5.211, 11.05, 12.76], "includesElement__en_allen": [5.211, 11.05, 12.76], "includesElement__metallic_radius": [198.0, 134.0, 137.0], "includesElement__metallic_radius_c12": [222.0, 144.0, 160.0], "includesElement__vdw_radius_batsanov": [270.0, 210.0], "includesElement__vdw_radius_truhlar": [268.0], "includesElement__thermal_conductivity": [429.0, 14.3], "includesElement__c6": [445.0], "includesElement__vdw_radius_dreiding": [423.0], "includesElement__vdw_radius_bondi": [206.0], "formula": ["Ag8Ba4Te8"], "spacegroup": ["62"], "thermalConductivity": [0.365636], "icsd": ["246048"], "band_gap": [0.6733], "density": [6.624991], "density_atomic": [30.49197], "deprecated": [false], "efermi": [3.758381], "energy_above_hull": [0.0], "energy_per_atom": [-3.731018], "formation_energy_per_atom": [-0.9527259], "is_gap_direct": [true], "is_magnetic": [false], "is_metal": [false], "is_stable": [true], "nelements": [3], "nsites": [20], "num_magnetic_sites": [0], "num_unique_magnetic_sites": [0], "theoretical": [false], "total_magnetization": [0.0], "total_magnetization_normalized_formula_units": [0.0], "total_magnetization_normalized_vol": [0.0], "uncorrected_energy_per_atom": [-24.91347], "volume": [609.8394], "cbm": [4.375], "e_electronic": [10.49821], "e_ionic": [10.02892], "e_total": [20.52712], "equilibrium_reaction_energy_per_atom": [-0.03393618], "n": [3.240094], "vbm": [3.7017]}