{"includesElement": ["", "N", "Sc", "In"], "includesElement___series_id": [1, 8, 7], "includesElement__abundance_crust": [19.0, 22.0, 0.25], "includesElement__atomic_number": [7, 21, 49], "includesElement__atomic_radius": [65.0, 160.0, 155.0], "includesElement__atomic_radius_rahm": [179.0, 263.0, 246.0], "includesElement__atomic_volume": [17.3, 15.0, 15.7], "includesElement__atomic_weight": [14.007, 44.95591, 114.818], "includesElement__covalent_radius_cordero": [71.0, 170.0, 142.0], "includesElement__covalent_radius_pyykko": [71.0, 148.0, 142.0], "includesElement__covalent_radius_pyykko_double": [60.0, 116.0, 136.0], "includesElement__covalent_radius_pyykko_triple": [54.0, 114.0, 146.0], "includesElement__density": [0.001145, 2.99, 7.31], "includesElement__dipole_polarizability": [7.4, 97.0, 65.0], "includesElement__dipole_polarizability_unc": [0.2, 10.0, 4.0], "includesElement__discovery_year": [1772, 1879, 1863], "includesElement__electron_affinity": [-1.4, 0.188, 0.3], "includesElement__electronegativity_allred-rochow": [0.000773656, 0.0001369613, 0.0002479667], "includesElement__electronegativity_cottrell-sutton": [0.2343706, 0.1423737, 0.1876467], "includesElement__electronegativity_ghosh": [0.26493, 0.1193833, 0.16423], "includesElement__electronegativity_gordy": [0.05492958, 0.02027027, 0.03521127], "includesElement__electronegativity_mulliken": [6.567065, 3.374745, 3.043178], "includesElement__electronegativity_nagle": [0.8774979, 0.3138941, 0.3587038], "includesElement__electronegativity_pauling": [3.04, 1.36, 1.78], "includesElement__electronegativity_sanderson": [0.577482, 0.3038674, 0.7172747], "includesElement__en_ghosh": [0.26493, 0.1193833, 0.16423], "includesElement__en_pauling": [3.04, 1.36, 1.78], "includesElement__glawe_number": [88, 48, 80], "includesElement__group_id": [15, 3, 13], "includesElement__heat_of_formation": [472.44, 377.8, 243.0], "includesElement__is_radioactive": [false], "includesElement__lattice_constant": [4.039, 3.31, 4.59], "includesElement__mendeleev_number": [93, 11, 84], "includesElement__molar_heat_capacity": [29.124, 25.52, 26.74], "includesElement__period": [2, 4, 5], "includesElement__pettifor_number": [100, 20, 79], "includesElement__specific_heat_capacity": [1.04, 0.568, 0.233], "includesElement__vdw_radius": [155.0, 215.0, 193.0], "includesElement__vdw_radius_alvarez": [166.0, 258.0, 243.0], "includesElement__vdw_radius_mm3": [193.0, 261.0, 264.0], "includesElement__vdw_radius_uff": [366.0, 329.5, 446.3], "includesElement__abundance_sea": [0.5, 6e-07, 0.02], "includesElement__c6_gb": [25.7, 1570.0, 643.0], "includesElement__covalent_radius_bragg": [65.0], "includesElement__electronegativity_allen": [18.13, 7.042, 9.793], "includesElement__en_allen": [18.13, 7.042, 9.793], "includesElement__metallic_radius_c12": [53.0, 162.0, 158.0], "includesElement__thermal_conductivity": [0.026, 15.8, 81.8], "includesElement__vdw_radius_batsanov": [160.0, 230.0, 220.0], "includesElement__c6": [24.2, 1383.0, 779.0], "includesElement__vdw_radius_dreiding": [366.21, 459.0], "includesElement__gas_basicity": [318.7, 892.0], "includesElement__proton_affinity": [342.2, 914.0], "includesElement__vdw_radius_bondi": [155.0, 193.0], "includesElement__vdw_radius_rt": [164.0], "includesElement__evaporation_heat": [332.7, 225.1], "includesElement__fusion_heat": [15.8, 3.24], "includesElement__atomic_weight_uncertainty": [5e-06, 0.001], "includesElement__metallic_radius": [144.0, 142.0], "includesElement__is_monoisotopic": [true], "formula": ["In1N1Sc3"], "spacegroup": ["221"], "thermalConductivity": [15.1759], "icsd": ["98499"], "band_gap": [0.0], "density": [4.920857], "density_atomic": [17.79656], "deprecated": [false], "efermi": [6.122746], "energy_above_hull": [0.0], "energy_per_atom": [-7.209011], "formation_energy_per_atom": [-1.19004], "homogeneous_poisson": [0.194], "is_gap_direct": [false], "is_magnetic": [false], "is_metal": [true], "is_stable": [true], "nelements": [3], "nsites": [5], "num_magnetic_sites": [0], "num_unique_magnetic_sites": [0], "theoretical": [false], "total_magnetization": [4.89e-05], "total_magnetization_normalized_formula_units": [4.89e-05], "total_magnetization_normalized_vol": [5.495445e-07], "uncorrected_energy_per_atom": [-14.44752], "universal_anisotropy": [0.01], "volume": [88.98279], "equilibrium_reaction_energy_per_atom": [-0.1299776]}