{"includesElement": ["", "Cd", "Si", "O"], "includesElement___series_id": [8, 5, 1], "includesElement__abundance_crust": [0.15, 282000.0, 461000.0], "includesElement__atomic_number": [48, 14, 8], "includesElement__atomic_radius": [155.0, 110.0, 60.0], "includesElement__atomic_radius_rahm": [238.0, 232.0, 171.0], "includesElement__atomic_volume": [13.1, 12.1, 14.0], "includesElement__atomic_weight": [112.414, 28.085, 15.999], "includesElement__covalent_radius_cordero": [144.0, 111.0, 66.0], "includesElement__covalent_radius_pyykko": [136.0, 116.0, 63.0], "includesElement__covalent_radius_pyykko_double": [144.0, 107.0, 57.0], "includesElement__density": [8.69, 2.3296, 0.001308], "includesElement__dipole_polarizability": [46.0, 37.3, 5.3], "includesElement__dipole_polarizability_unc": [2.0, 0.7, 0.2], "includesElement__discovery_year": [1817, 1824, 1774], "includesElement__electronegativity_allred-rochow": [0.000235186, 0.0003084126, 0.001146384], "includesElement__electronegativity_cottrell-sutton": [0.1788443, 0.1891451, 0.2687419], "includesElement__electronegativity_ghosh": [0.1504066, 0.178503, 0.304575], "includesElement__electronegativity_gordy": [0.03198529, 0.03577586, 0.07222222], "includesElement__electronegativity_mulliken": [4.496911, 4.770602, 7.539584], "includesElement__electronegativity_nagle": [0.6389612, 0.4750986, 1.042218], "includesElement__electronegativity_pauling": [1.69, 1.9, 3.44], "includesElement__electronegativity_sanderson": [0.801562, 0.3468158, 0.9416494], "includesElement__en_ghosh": [0.1504066, 0.178503, 0.304575], "includesElement__en_pauling": [1.69, 1.9, 3.44], "includesElement__evaporation_heat": [59.1, 383.0], "includesElement__fusion_heat": [6.11, 50.6], "includesElement__glawe_number": [75, 85, 97], "includesElement__group_id": [12, 14, 16], "includesElement__heat_of_formation": [111.8, 450.0, 249.229], "includesElement__is_radioactive": [false], "includesElement__lattice_constant": [2.98, 5.43, 6.83], "includesElement__mendeleev_number": [78, 88, 99], "includesElement__molar_heat_capacity": [26.02, 19.99, 29.378], "includesElement__period": [5, 3, 2], "includesElement__pettifor_number": [75, 85, 101], "includesElement__specific_heat_capacity": [0.232, 0.712, 0.918], "includesElement__vdw_radius": [218.0, 210.0, 152.0], "includesElement__vdw_radius_alvarez": [249.0, 219.0, 150.0], "includesElement__vdw_radius_mm3": [250.0, 229.0, 182.0], "includesElement__vdw_radius_uff": [284.8, 429.5, 350.0], "includesElement__abundance_sea": [0.00011, 2.2, 857000.0], "includesElement__atomic_weight_uncertainty": [0.004], "includesElement__c6_gb": [405.0, 308.0, 16.7], "includesElement__covalent_radius_bragg": [160.0, 117.0, 65.0], "includesElement__electronegativity_allen": [8.995, 11.33, 21.36], "includesElement__en_allen": [8.995, 11.33, 21.36], "includesElement__metallic_radius": [138.0, 117.0], "includesElement__metallic_radius_c12": [151.0, 138.0], "includesElement__thermal_conductivity": [96.9, 149.0, 0.027], "includesElement__vdw_radius_batsanov": [220.0, 210.0, 155.0], "includesElement__covalent_radius_pyykko_triple": [102.0, 53.0], "includesElement__electron_affinity": [1.389521, 1.461113], "includesElement__c6": [305.0, 15.6], "includesElement__vdw_radius_dreiding": [427.0, 340.46], "includesElement__gas_basicity": [814.1, 459.6], "includesElement__proton_affinity": [837.0, 485.2], "includesElement__vdw_radius_bondi": [210.0, 152.0], "includesElement__vdw_radius_rt": [158.0], "formula": ["Cd4O8Si2"], "spacegroup": ["227"], "thermalConductivity": [3.10276], "icsd": ["161025"], "band_gap": [1.0232], "density": [6.138797], "density_atomic": [12.24608], "deprecated": [false], "efermi": [2.453998], "energy_above_hull": [0.1344579], "energy_per_atom": [-12.34501], "formation_energy_per_atom": [-1.941243], "is_gap_direct": [true], "is_magnetic": [false], "is_metal": [false], "is_stable": [false], "nelements": [3], "nsites": [14], "num_magnetic_sites": [0], "num_unique_magnetic_sites": [0], "theoretical": [true], "total_magnetization": [0.0002349], "total_magnetization_normalized_formula_units": [0.00011745], "total_magnetization_normalized_vol": [1.370118e-06], "uncorrected_energy_per_atom": [-5.564979], "volume": [171.4451], "cbm": [3.4089], "vbm": [2.3857]}