{"includesElement": ["", "Ni", "Ca", "N"], "includesElement___series_id": [8, 4, 1], "includesElement__abundance_crust": [84.0, 41500.0, 19.0], "includesElement__atomic_number": [28, 20, 7], "includesElement__atomic_radius": [135.0, 180.0, 65.0], "includesElement__atomic_radius_rahm": [229.0, 270.0, 179.0], "includesElement__atomic_volume": [6.6, 29.9, 17.3], "includesElement__atomic_weight": [58.6934, 40.078, 14.007], "includesElement__covalent_radius_cordero": [124.0, 176.0, 71.0], "includesElement__covalent_radius_pyykko": [110.0, 171.0, 71.0], "includesElement__covalent_radius_pyykko_double": [101.0, 147.0, 60.0], "includesElement__covalent_radius_pyykko_triple": [101.0, 133.0, 54.0], "includesElement__density": [8.9, 1.54, 0.001145], "includesElement__dipole_polarizability": [49.0, 160.8, 7.4], "includesElement__dipole_polarizability_unc": [3.0, 4.0, 0.2], "includesElement__discovery_year": [1751, 1808, 1772], "includesElement__electron_affinity": [1.156, 0.02455, -1.4], "includesElement__electronegativity_allred-rochow": [0.0003347107, 9.746589e-05, 0.000773656], "includesElement__electronegativity_cottrell-sutton": [0.1918806, 0.1290994, 0.2343706], "includesElement__electronegativity_ghosh": [0.1472068, 0.1154119, 0.26493], "includesElement__electronegativity_gordy": [0.03681818, 0.01666667, 0.05492958], "includesElement__electronegativity_mulliken": [4.397939, 3.068853, 6.567065], "includesElement__electronegativity_nagle": [0.588755, 0.2316939, 0.8774979], "includesElement__electronegativity_pauling": [1.91, 1.0, 3.04], "includesElement__electronegativity_sanderson": [0.937704, 0.1901577, 0.577482], "includesElement__en_ghosh": [0.1472068, 0.1154119, 0.26493], "includesElement__en_pauling": [1.91, 1.0, 3.04], "includesElement__evaporation_heat": [378.6, 153.6], "includesElement__fusion_heat": [17.61, 9.2], "includesElement__glawe_number": [69, 16, 88], "includesElement__group_id": [10, 2, 15], "includesElement__heat_of_formation": [430.1, 177.8, 472.44], "includesElement__is_radioactive": [false], "includesElement__lattice_constant": [3.52, 5.58, 4.039], "includesElement__mendeleev_number": [67, 7, 93], "includesElement__molar_heat_capacity": [26.07, 25.929, 29.124], "includesElement__period": [4, 2], "includesElement__pettifor_number": [67, 16, 100], "includesElement__specific_heat_capacity": [0.444, 0.647, 1.04], "includesElement__vdw_radius": [197.0, 231.0, 155.0], "includesElement__vdw_radius_alvarez": [240.0, 262.0, 166.0], "includesElement__vdw_radius_mm3": [222.0, 281.0, 193.0], "includesElement__vdw_radius_uff": [283.4, 339.9, 366.0], "includesElement__abundance_sea": [0.00056, 412.0, 0.5], "includesElement__atomic_weight_uncertainty": [0.0004, 0.004], "includesElement__c6_gb": [393.0, 2230.0, 25.7], "includesElement__covalent_radius_bragg": [135.0, 170.0, 65.0], "includesElement__electronegativity_allen": [11.13, 6.113, 18.13], "includesElement__en_allen": [11.13, 6.113, 18.13], "includesElement__metallic_radius": [115.0, 174.0], "includesElement__metallic_radius_c12": [124.0, 197.0, 53.0], "includesElement__thermal_conductivity": [90.9, 0.026], "includesElement__vdw_radius_batsanov": [200.0, 240.0, 160.0], "includesElement__c6": [373.0, 2163.0, 24.2], "includesElement__gas_basicity": [714.1, 318.7], "includesElement__proton_affinity": [737.0, 342.2], "includesElement__vdw_radius_truhlar": [231.0], "includesElement__vdw_radius_dreiding": [366.21], "includesElement__vdw_radius_bondi": [155.0], "includesElement__vdw_radius_rt": [164.0], "formula": ["Ca2N2Ni2"], "spacegroup": ["131"], "thermalConductivity": [9.45342], "icsd": ["656846"], "band_gap": [0.0], "density": [4.249631], "density_atomic": [14.68931], "deprecated": [false], "efermi": [4.995966], "energy_above_hull": [0.0], "energy_per_atom": [-6.16896], "formation_energy_per_atom": [-0.7942891], "homogeneous_poisson": [0.28], "is_gap_direct": [false], "is_magnetic": [true], "is_metal": [true], "is_stable": [true], "nelements": [3], "nsites": [6], "num_magnetic_sites": [2], "num_unique_magnetic_sites": [1], "theoretical": [false], "total_magnetization": [0.3727173], "total_magnetization_normalized_formula_units": [0.1863586], "total_magnetization_normalized_vol": [0.004228895], "uncorrected_energy_per_atom": [-10.15331], "universal_anisotropy": [1.317], "volume": [88.13585], "equilibrium_reaction_energy_per_atom": [-0.2203424]}