{"includesElement": ["", "Sb", "Ta"], "includesElement___series_id": [5, 8], "includesElement__abundance_crust": [0.2, 2.0], "includesElement__atomic_number": [51, 73], "includesElement__atomic_radius": [145.0], "includesElement__atomic_radius_rahm": [246.0, 258.0], "includesElement__atomic_volume": [18.4, 10.9], "includesElement__atomic_weight": [121.76, 180.9479], "includesElement__covalent_radius_cordero": [139.0, 170.0], "includesElement__covalent_radius_pyykko": [140.0, 146.0], "includesElement__covalent_radius_pyykko_double": [133.0, 126.0], "includesElement__covalent_radius_pyykko_triple": [127.0, 119.0], "includesElement__density": [6.68, 16.4], "includesElement__dipole_polarizability": [43.0, 74.0], "includesElement__dipole_polarizability_unc": [2.0, 20.0], "includesElement__electron_affinity": [1.046, 0.322], "includesElement__electronegativity_allred-rochow": [0.0003214286, 0.0001548133], "includesElement__electronegativity_cottrell-sutton": [0.212132, 0.1503421], "includesElement__electronegativity_ghosh": [0.1918774, 0.234581], "includesElement__electronegativity_gordy": [0.045, 0.02260274], "includesElement__electronegativity_mulliken": [4.827195, 3.935785], "includesElement__electronegativity_nagle": [0.4880907, 0.4072985], "includesElement__electronegativity_pauling": [2.05, 1.5], "includesElement__electronegativity_sanderson": [0.7762722, 0.8358832], "includesElement__en_ghosh": [0.1918774, 0.234581], "includesElement__en_pauling": [2.05, 1.5], "includesElement__evaporation_heat": [195.2, 758.0], "includesElement__fusion_heat": [20.08, 24.7], "includesElement__glawe_number": [91, 52], "includesElement__group_id": [15, 5], "includesElement__heat_of_formation": [264.4, 782.0], "includesElement__is_radioactive": [false], "includesElement__lattice_constant": [4.51, 3.31], "includesElement__mendeleev_number": [96, 49], "includesElement__molar_heat_capacity": [25.23, 25.36], "includesElement__period": [5, 6], "includesElement__pettifor_number": [88, 53], "includesElement__specific_heat_capacity": [0.207, 0.14], "includesElement__vdw_radius": [206.0, 222.0], "includesElement__vdw_radius_alvarez": [247.0, 253.0], "includesElement__vdw_radius_mm3": [252.0, 243.0], "includesElement__vdw_radius_uff": [442.0, 317.0], "includesElement__abundance_sea": [0.00024, 2e-06], "includesElement__atomic_weight_uncertainty": [0.001, 2e-05], "includesElement__c6_gb": [504.0, 887.0], "includesElement__covalent_radius_bragg": [140.0], "includesElement__electronegativity_allen": [11.74, 7.93], "includesElement__en_allen": [11.74, 7.93], "includesElement__metallic_radius": [139.0, 134.0], "includesElement__metallic_radius_c12": [166.0, 146.0], "includesElement__thermal_conductivity": [24.43, 57.5], "includesElement__vdw_radius_batsanov": [220.0], "includesElement__c6": [492.0], "includesElement__vdw_radius_dreiding": [435.0], "includesElement__vdw_radius_truhlar": [206.0], "includesElement__discovery_year": [1802], "formula": ["Sb4Ta5"], "spacegroup": ["87"], "thermalConductivity": [2.8749], "icsd": ["52312"], "band_gap": [0.0], "density": [12.52164], "density_atomic": [20.50764], "deprecated": [false], "efermi": [8.35514], "energy_above_hull": [0.2681748], "energy_per_atom": [-38.34445], "formation_energy_per_atom": [0.07604198], "is_gap_direct": [false], "is_magnetic": [false], "is_metal": [true], "is_stable": [false], "nelements": [2], "nsites": [9], "num_magnetic_sites": [0], "num_unique_magnetic_sites": [0], "theoretical": [false], "total_magnetization": [0.0192277], "total_magnetization_normalized_formula_units": [0.0192277], "total_magnetization_normalized_vol": [0.0001041763], "uncorrected_energy_per_atom": [-8.317645], "volume": [184.5688]}