{"includesElement": ["", "Bi", "O", "Rh"], "includesElement___series_id": [7, 1, 8], "includesElement__abundance_crust": [0.0085, 461000.0, 0.001], "includesElement__atomic_number": [83, 8, 45], "includesElement__atomic_radius": [160.0, 60.0, 135.0], "includesElement__atomic_radius_rahm": [250.0, 171.0, 233.0], "includesElement__atomic_volume": [21.3, 14.0, 8.3], "includesElement__atomic_weight": [208.9804, 15.999, 102.9055], "includesElement__covalent_radius_cordero": [148.0, 66.0, 142.0], "includesElement__covalent_radius_pyykko": [151.0, 63.0, 125.0], "includesElement__covalent_radius_pyykko_double": [141.0, 57.0, 110.0], "includesElement__covalent_radius_pyykko_triple": [135.0, 53.0, 106.0], "includesElement__density": [9.79, 0.001308, 12.4], "includesElement__dipole_polarizability": [48.0, 5.3, 66.0], "includesElement__dipole_polarizability_unc": [4.0, 0.2, 10.0], "includesElement__electron_affinity": [0.942362, 1.461113, 1.137], "includesElement__electronegativity_allred-rochow": [0.0002763037, 0.001146384, 0.0002176], "includesElement__electronegativity_cottrell-sutton": [0.2042593, 0.2687419, 0.1649242], "includesElement__electronegativity_ghosh": [0.182377, 0.304575, 0.1408379], "includesElement__electronegativity_gordy": [0.04172185, 0.07222222, 0.0272], "includesElement__electronegativity_mulliken": [4.113939, 7.539584, 4.29795], "includesElement__electronegativity_nagle": [0.470518, 1.042218, 0.5147142], "includesElement__electronegativity_pauling": [1.9, 3.44, 2.28], "includesElement__electronegativity_sanderson": [0.8136501, 0.9416494, 0.9761915], "includesElement__en_ghosh": [0.182377, 0.304575, 0.1408379], "includesElement__en_pauling": [1.9, 3.44, 2.28], "includesElement__evaporation_heat": [172.0, 494.0], "includesElement__fusion_heat": [11.0, 21.8], "includesElement__glawe_number": [92, 97, 63], "includesElement__group_id": [15, 16, 9], "includesElement__heat_of_formation": [209.6, 249.229, 556.0], "includesElement__is_radioactive": [false], "includesElement__lattice_constant": [4.75, 6.83, 3.8], "includesElement__mendeleev_number": [97, 99, 64], "includesElement__molar_heat_capacity": [25.52, 29.378, 24.98], "includesElement__period": [6, 2, 5], "includesElement__pettifor_number": [87, 101, 66], "includesElement__specific_heat_capacity": [0.122, 0.918, 0.243], "includesElement__vdw_radius": [207.0, 152.0, 210.0], "includesElement__vdw_radius_alvarez": [254.0, 150.0, 244.0], "includesElement__vdw_radius_mm3": [266.0, 182.0, 234.0], "includesElement__vdw_radius_uff": [437.0, 350.0, 292.9], "includesElement__abundance_sea": [2e-05, 857000.0], "includesElement__atomic_weight_uncertainty": [1e-05, 2e-05], "includesElement__c6_gb": [513.0, 16.7, 708.0], "includesElement__covalent_radius_bragg": [148.0, 65.0], "includesElement__electronegativity_allen": [11.9, 21.36, 9.259], "includesElement__en_allen": [11.9, 21.36, 9.259], "includesElement__metallic_radius": [151.0, 125.0], "includesElement__metallic_radius_c12": [178.0, 134.0], "includesElement__thermal_conductivity": [7.9, 0.027, 150.0], "includesElement__vdw_radius_batsanov": [230.0, 155.0, 200.0], "includesElement__is_monoisotopic": [true], "includesElement__vdw_radius_truhlar": [207.0], "includesElement__discovery_year": [1774, 1803], "includesElement__c6": [15.6], "includesElement__vdw_radius_dreiding": [340.46], "includesElement__gas_basicity": [459.6, 745.4], "includesElement__proton_affinity": [485.2, 768.0], "includesElement__vdw_radius_bondi": [152.0], "includesElement__vdw_radius_rt": [158.0], "formula": ["Bi4O14Rh4"], "spacegroup": ["227"], "thermalConductivity": [2.65083], "icsd": ["161099"], "band_gap": [0.0], "density": [9.019992], "density_atomic": [12.31377], "deprecated": [false], "efermi": [5.446552], "energy_above_hull": [0.0], "energy_per_atom": [-6.653888], "formation_energy_per_atom": [-1.465212], "is_gap_direct": [false], "is_magnetic": [false], "is_metal": [true], "is_stable": [true], "nelements": [3], "nsites": [22], "num_magnetic_sites": [0], "num_unique_magnetic_sites": [0], "theoretical": [true], "total_magnetization": [2.7e-05], "total_magnetization_normalized_formula_units": [1.35e-05], "total_magnetization_normalized_vol": [9.966672e-08], "uncorrected_energy_per_atom": [-19.99191], "volume": [270.9029], "equilibrium_reaction_energy_per_atom": [-0.04781752]}