{"includesElement": ["", "Sb", "Zn", "Hf"], "includesElement___series_id": [5, 8], "includesElement__abundance_crust": [0.2, 70.0, 3.0], "includesElement__atomic_number": [51, 30, 72], "includesElement__atomic_radius": [145.0, 135.0, 155.0], "includesElement__atomic_radius_rahm": [246.0, 222.0, 264.0], "includesElement__atomic_volume": [18.4, 9.2, 13.6], "includesElement__atomic_weight": [121.76, 65.38, 178.49], "includesElement__covalent_radius_cordero": [139.0, 122.0, 175.0], "includesElement__covalent_radius_pyykko": [140.0, 118.0, 152.0], "includesElement__covalent_radius_pyykko_double": [133.0, 120.0, 128.0], "includesElement__covalent_radius_pyykko_triple": [127.0, 122.0], "includesElement__density": [6.68, 7.134, 13.3], "includesElement__dipole_polarizability": [43.0, 38.67, 103.0], "includesElement__dipole_polarizability_unc": [2.0, 0.3, 6.0], "includesElement__electron_affinity": [1.046, 0.014], "includesElement__electronegativity_allred-rochow": [0.0003214286, 0.0003124102, 0.00013634], "includesElement__electronegativity_cottrell-sutton": [0.212132, 0.1920011, 0.1439572], "includesElement__electronegativity_ghosh": [0.1918774, 0.1551518, 0.229987], "includesElement__electronegativity_gordy": [0.045, 0.03686441, 0.02072368], "includesElement__electronegativity_mulliken": [4.827195, 4.6971, 3.419535], "includesElement__electronegativity_nagle": [0.4880907, 0.6770213, 0.3386421], "includesElement__electronegativity_pauling": [2.05, 1.65, 1.3], "includesElement__electronegativity_sanderson": [0.7762722, 0.8100877, 0.7352125], "includesElement__en_ghosh": [0.1918774, 0.1551518, 0.229987], "includesElement__en_pauling": [2.05, 1.65, 1.3], "includesElement__evaporation_heat": [195.2, 114.8, 575.0], "includesElement__fusion_heat": [20.08, 7.28, 25.1], "includesElement__glawe_number": [91, 74, 50], "includesElement__group_id": [15, 12, 4], "includesElement__heat_of_formation": [264.4, 130.4, 618.4], "includesElement__is_radioactive": [false], "includesElement__lattice_constant": [4.51, 2.66, 3.2], "includesElement__mendeleev_number": [96, 77, 45], "includesElement__molar_heat_capacity": [25.23, 25.39, 25.73], "includesElement__period": [5, 4, 6], "includesElement__pettifor_number": [88, 76, 50], "includesElement__specific_heat_capacity": [0.207, 0.388, 0.144], "includesElement__vdw_radius": [206.0, 201.0, 223.0], "includesElement__vdw_radius_alvarez": [247.0, 239.0, 263.0], "includesElement__vdw_radius_mm3": [252.0, 229.0, 253.0], "includesElement__vdw_radius_uff": [442.0, 276.3, 314.1], "includesElement__abundance_sea": [0.00024, 0.0049, 7e-06], "includesElement__atomic_weight_uncertainty": [0.001, 0.02], "includesElement__c6_gb": [504.0, 276.0, 1040.0], "includesElement__covalent_radius_bragg": [140.0, 132.0], "includesElement__electronegativity_allen": [11.74, 9.395, 6.83], "includesElement__en_allen": [11.74, 9.395, 6.83], "includesElement__metallic_radius": [139.0, 121.0, 144.0], "includesElement__metallic_radius_c12": [166.0, 134.0, 159.0], "includesElement__thermal_conductivity": [24.43, 116.0, 23.0], "includesElement__vdw_radius_batsanov": [220.0, 210.0, 225.0], "includesElement__c6": [492.0, 284.0], "includesElement__vdw_radius_dreiding": [435.0], "includesElement__vdw_radius_truhlar": [206.0], "includesElement__gas_basicity": [586.0], "includesElement__proton_affinity": [608.6], "includesElement__discovery_year": [1923], "formula": ["Hf10Sb6Zn2"], "spacegroup": ["193"], "thermalConductivity": [3.1339], "icsd": ["42913"], "band_gap": [0.0], "density": [12.08862], "density_atomic": [20.19461], "deprecated": [false], "efermi": [7.449486], "energy_above_hull": [0.0], "energy_per_atom": [-35.1971], "formation_energy_per_atom": [-0.5541437], "is_gap_direct": [false], "is_magnetic": [false], "is_metal": [true], "is_stable": [true], "nelements": [3], "nsites": [18], "num_magnetic_sites": [0], "num_unique_magnetic_sites": [0], "theoretical": [false], "total_magnetization": [3e-07], "total_magnetization_normalized_formula_units": [1.5e-07], "total_magnetization_normalized_vol": [8.253028e-10], "uncorrected_energy_per_atom": [-35.1971], "volume": [363.5029], "equilibrium_reaction_energy_per_atom": [-0.05696917]}