{"includesElement": ["", "O", "In", "Au"], "includesElement___series_id": [1, 7, 8], "includesElement__abundance_crust": [461000.0, 0.25, 0.004], "includesElement__atomic_number": [8, 49, 79], "includesElement__atomic_radius": [60.0, 155.0, 135.0], "includesElement__atomic_radius_rahm": [171.0, 246.0, 226.0], "includesElement__atomic_volume": [14.0, 15.7, 10.2], "includesElement__atomic_weight": [15.999, 114.818, 196.9666], "includesElement__covalent_radius_cordero": [66.0, 142.0, 136.0], "includesElement__covalent_radius_pyykko": [63.0, 142.0, 124.0], "includesElement__covalent_radius_pyykko_double": [57.0, 136.0, 121.0], "includesElement__covalent_radius_pyykko_triple": [53.0, 146.0, 123.0], "includesElement__density": [0.001308, 7.31, 19.3], "includesElement__dipole_polarizability": [5.3, 65.0, 36.0], "includesElement__dipole_polarizability_unc": [0.2, 4.0, 3.0], "includesElement__discovery_year": [1774, 1863], "includesElement__electron_affinity": [1.461113, 0.3, 2.30863], "includesElement__electronegativity_allred-rochow": [0.001146384, 0.0002479667, 0.0002406348], "includesElement__electronegativity_cottrell-sutton": [0.2687419, 0.1876467, 0.1727388], "includesElement__electronegativity_ghosh": [0.304575, 0.16423, 0.26137], "includesElement__electronegativity_gordy": [0.07222222, 0.03521127, 0.02983871], "includesElement__electronegativity_mulliken": [7.539584, 3.043178, 5.767091], "includesElement__electronegativity_nagle": [1.042218, 0.3587038, 0.67354], "includesElement__electronegativity_pauling": [3.44, 1.78, 2.4], "includesElement__electronegativity_sanderson": [0.9416494, 0.7172747, 1.426701], "includesElement__en_ghosh": [0.304575, 0.16423, 0.26137], "includesElement__en_pauling": [3.44, 1.78, 2.4], "includesElement__glawe_number": [97, 80, 66], "includesElement__group_id": [16, 13, 11], "includesElement__heat_of_formation": [249.229, 243.0, 368.2], "includesElement__is_radioactive": [false], "includesElement__lattice_constant": [6.83, 4.59, 4.08], "includesElement__mendeleev_number": [99, 84, 73], "includesElement__molar_heat_capacity": [29.378, 26.74, 25.418], "includesElement__period": [2, 5, 6], "includesElement__pettifor_number": [101, 79, 70], "includesElement__specific_heat_capacity": [0.918, 0.233, 0.129], "includesElement__vdw_radius": [152.0, 193.0, 214.0], "includesElement__vdw_radius_alvarez": [150.0, 243.0, 232.0], "includesElement__vdw_radius_mm3": [182.0, 264.0, 243.0], "includesElement__vdw_radius_uff": [350.0, 446.3, 329.3], "includesElement__abundance_sea": [857000.0, 0.02, 4e-06], "includesElement__c6_gb": [16.7, 643.0, 427.0], "includesElement__covalent_radius_bragg": [65.0], "includesElement__electronegativity_allen": [21.36, 9.793, 11.33], "includesElement__en_allen": [21.36, 9.793, 11.33], "includesElement__thermal_conductivity": [0.027, 81.8, 318.0], "includesElement__vdw_radius_batsanov": [155.0, 220.0, 210.0], "includesElement__c6": [15.6, 779.0], "includesElement__vdw_radius_dreiding": [340.46, 459.0], "includesElement__gas_basicity": [459.6], "includesElement__proton_affinity": [485.2], "includesElement__vdw_radius_bondi": [152.0, 193.0], "includesElement__vdw_radius_rt": [158.0], "includesElement__evaporation_heat": [225.1, 340.0], "includesElement__fusion_heat": [3.24, 12.68], "includesElement__atomic_weight_uncertainty": [0.001, 5e-06], "includesElement__metallic_radius": [142.0, 134.0], "includesElement__metallic_radius_c12": [158.0, 144.0], "includesElement__is_monoisotopic": [true], "formula": ["Au2In2O4"], "spacegroup": ["194"], "thermalConductivity": [1.704], "icsd": ["95672"], "band_gap": [0.0], "density": [9.641286], "density_atomic": [14.80263], "deprecated": [false], "efermi": [4.553459], "energy_above_hull": [0.01092967], "energy_per_atom": [-22.45797], "formation_energy_per_atom": [-1.186754], "is_gap_direct": [false], "is_magnetic": [false], "is_metal": [true], "is_stable": [false], "nelements": [3], "nsites": [8], "num_magnetic_sites": [0], "num_unique_magnetic_sites": [0], "theoretical": [true], "total_magnetization": [0.0], "total_magnetization_normalized_formula_units": [0.0], "total_magnetization_normalized_vol": [0.0], "uncorrected_energy_per_atom": [-22.45797], "volume": [118.4211]}