{"includesElement": ["", "Zn", "N", "Nb"], "includesElement___series_id": [8, 1], "includesElement__abundance_crust": [70.0, 19.0, 20.0], "includesElement__atomic_number": [30, 7, 41], "includesElement__atomic_radius": [135.0, 65.0, 145.0], "includesElement__atomic_radius_rahm": [222.0, 179.0, 251.0], "includesElement__atomic_volume": [9.2, 17.3, 10.8], "includesElement__atomic_weight": [65.38, 14.007, 92.90637], "includesElement__covalent_radius_cordero": [122.0, 71.0, 164.0], "includesElement__covalent_radius_pyykko": [118.0, 71.0, 147.0], "includesElement__covalent_radius_pyykko_double": [120.0, 60.0, 125.0], "includesElement__density": [7.134, 0.001145, 8.57], "includesElement__dipole_polarizability": [38.67, 7.4, 98.0], "includesElement__dipole_polarizability_unc": [0.3, 0.2, 8.0], "includesElement__electronegativity_allred-rochow": [0.0003124102, 0.000773656, 0.0001295756], "includesElement__electronegativity_cottrell-sutton": [0.1920011, 0.2343706, 0.1380131], "includesElement__electronegativity_ghosh": [0.1551518, 0.26493, 0.1280782], "includesElement__electronegativity_gordy": [0.03686441, 0.05492958, 0.01904762], "includesElement__electronegativity_mulliken": [4.6971, 6.567065, 3.838128], "includesElement__electronegativity_nagle": [0.6770213, 0.8774979, 0.3708924], "includesElement__electronegativity_pauling": [1.65, 3.04, 1.6], "includesElement__electronegativity_sanderson": [0.8100877, 0.577482, 0.5561695], "includesElement__en_ghosh": [0.1551518, 0.26493, 0.1280782], "includesElement__en_pauling": [1.65, 3.04, 1.6], "includesElement__evaporation_heat": [114.8, 680.0], "includesElement__fusion_heat": [7.28, 26.8], "includesElement__glawe_number": [74, 88, 53], "includesElement__group_id": [12, 15, 5], "includesElement__heat_of_formation": [130.4, 472.44, 733.0], "includesElement__is_radioactive": [false], "includesElement__lattice_constant": [2.66, 4.039, 3.3], "includesElement__mendeleev_number": [77, 93, 48], "includesElement__molar_heat_capacity": [25.39, 29.124, 24.6], "includesElement__period": [4, 2, 5], "includesElement__pettifor_number": [76, 100, 52], "includesElement__specific_heat_capacity": [0.388, 1.04, 0.265], "includesElement__vdw_radius": [201.0, 155.0, 218.0], "includesElement__vdw_radius_alvarez": [239.0, 166.0, 256.0], "includesElement__vdw_radius_mm3": [229.0, 193.0, 243.0], "includesElement__vdw_radius_uff": [276.3, 366.0, 316.5], "includesElement__abundance_sea": [0.0049, 0.5, 1e-05], "includesElement__atomic_weight_uncertainty": [0.02, 2e-05], "includesElement__c6_gb": [276.0, 25.7, 1140.0], "includesElement__covalent_radius_bragg": [132.0, 65.0], "includesElement__electronegativity_allen": [9.395, 18.13, 8.34], "includesElement__en_allen": [9.395, 18.13, 8.34], "includesElement__metallic_radius": [121.0, 134.0], "includesElement__metallic_radius_c12": [134.0, 53.0, 146.0], "includesElement__thermal_conductivity": [116.0, 0.026, 53.7], "includesElement__vdw_radius_batsanov": [210.0, 160.0, 215.0], "includesElement__c6": [284.0, 24.2], "includesElement__gas_basicity": [586.0, 318.7], "includesElement__proton_affinity": [608.6, 342.2], "includesElement__covalent_radius_pyykko_triple": [54.0, 116.0], "includesElement__discovery_year": [1772, 1801], "includesElement__electron_affinity": [-1.4, 0.917406], "includesElement__vdw_radius_dreiding": [366.21], "includesElement__vdw_radius_bondi": [155.0], "includesElement__vdw_radius_rt": [164.0], "includesElement__is_monoisotopic": [true], "formula": ["N4Nb12Zn12"], "spacegroup": ["227"], "thermalConductivity": [5.03184], "icsd": ["42939"], "band_gap": [0.0], "density": [8.173061], "density_atomic": [14.19166], "deprecated": [false], "efermi": [4.888952], "energy_above_hull": [0.0], "energy_per_atom": [-6.614899], "formation_energy_per_atom": [-0.5546958], "is_gap_direct": [false], "is_magnetic": [false], "is_metal": [true], "is_stable": [true], "nelements": [3], "nsites": [28], "num_magnetic_sites": [0], "num_unique_magnetic_sites": [0], "theoretical": [false], "total_magnetization": [0.000165], "total_magnetization_normalized_formula_units": [4.125e-05], "total_magnetization_normalized_vol": [4.152337e-07], "uncorrected_energy_per_atom": [-16.29911], "volume": [397.3666], "e_electronic": [351.7643], "e_ionic": [7.610346], "e_total": [359.3747], "equilibrium_reaction_energy_per_atom": [-0.0345442], "n": [18.75538]}