{"includesElement": ["", "Na", "Pt", "H"], "includesElement___series_id": [3, 8, 1], "includesElement__abundance_crust": [23600.0, 0.005, 1400.0], "includesElement__atomic_number": [11, 78, 1], "includesElement__atomic_radius": [180.0, 135.0, 25.0], "includesElement__atomic_radius_rahm": [225.0, 230.0, 154.0], "includesElement__atomic_volume": [23.7, 9.1, 14.1], "includesElement__atomic_weight": [22.98977, 195.084, 1.008], "includesElement__covalent_radius_cordero": [166.0, 136.0, 31.0], "includesElement__covalent_radius_pyykko": [155.0, 123.0, 32.0], "includesElement__covalent_radius_pyykko_double": [160.0, 112.0], "includesElement__density": [0.97, 21.5, 8.2e-05], "includesElement__dipole_polarizability": [162.7, 48.0, 4.50711], "includesElement__dipole_polarizability_unc": [0.5, 4.0, 3e-05], "includesElement__discovery_year": [1807, 1735, 1766], "includesElement__electron_affinity": [0.547926, 2.128, 0.754195], "includesElement__electronegativity_allred-rochow": [9.157128e-05, 0.0002346487, 0.0009765625], "includesElement__electronegativity_cottrell-sutton": [0.1191367, 0.1698876, 0.1767767], "includesElement__electronegativity_ghosh": [0.093214, 0.25691, 0.2638], "includesElement__electronegativity_gordy": [0.01419355, 0.02886179, 0.03125], "includesElement__electronegativity_mulliken": [2.843501, 5.543415, 7.176315], "includesElement__electronegativity_nagle": [0.1831769, 0.5928156, 0.6053882], "includesElement__electronegativity_pauling": [0.93, 2.2], "includesElement__electronegativity_sanderson": [0.09459764, 1.45101, 2.187771], "includesElement__en_ghosh": [0.093214, 0.25691, 0.2638], "includesElement__en_pauling": [0.93, 2.2], "includesElement__evaporation_heat": [97.9, 470.0, 0.904], "includesElement__fusion_heat": [2.64, 21.76, 0.117], "includesElement__glawe_number": [11, 64, 103], "includesElement__group_id": [1, 10], "includesElement__heat_of_formation": [107.5, 565.7, 217.998], "includesElement__is_radioactive": [false], "includesElement__lattice_constant": [4.23, 3.92, 3.75], "includesElement__mendeleev_number": [2, 69, 105], "includesElement__molar_heat_capacity": [28.23, 25.86, 28.836], "includesElement__period": [3, 6, 1], "includesElement__pettifor_number": [11, 68, 103], "includesElement__specific_heat_capacity": [1.228, 0.133, 14.304], "includesElement__vdw_radius": [227.0, 213.0, 110.0], "includesElement__vdw_radius_alvarez": [250.0, 229.0, 120.0], "includesElement__vdw_radius_mm3": [270.0, 239.0, 162.0], "includesElement__vdw_radius_uff": [298.3, 275.4, 288.6], "includesElement__abundance_sea": [10800.0, 108000.0], "includesElement__atomic_weight_uncertainty": [2e-08, 0.009], "includesElement__c6_gb": [1570.0, 470.0, 6.51], "includesElement__covalent_radius_bragg": [177.0], "includesElement__electronegativity_allen": [5.14, 10.16, 13.61], "includesElement__en_allen": [5.14, 10.16, 13.61], "includesElement__metallic_radius": [157.0, 130.0], "includesElement__metallic_radius_c12": [190.0, 139.0, 78.0], "includesElement__thermal_conductivity": [142.0, 71.6, 0.1815], "includesElement__vdw_radius_batsanov": [240.0, 205.0], "includesElement__c6": [1518.0, 6.499027], "includesElement__is_monoisotopic": [true], "includesElement__vdw_radius_bondi": [227.0, 120.0], "includesElement__covalent_radius_pyykko_triple": [110.0], "includesElement__vdw_radius_dreiding": [319.5], "includesElement__vdw_radius_rt": [110.0], "formula": ["H6Na2Pt1"], "spacegroup": ["225"], "thermalConductivity": [4.25043], "icsd": ["236284"], "band_gap": [3.6156], "density": [4.291777], "density_atomic": [10.62336], "deprecated": [false], "efermi": [-1.29233], "energy_above_hull": [0.0], "energy_per_atom": [-9.253502], "formation_energy_per_atom": [-0.4371965], "homogeneous_poisson": [0.213], "is_gap_direct": [false], "is_magnetic": [false], "is_metal": [false], "is_stable": [true], "nelements": [3], "nsites": [9], "num_magnetic_sites": [0], "num_unique_magnetic_sites": [0], "theoretical": [false], "total_magnetization": [0.0], "total_magnetization_normalized_formula_units": [0.0], "total_magnetization_normalized_vol": [0.0], "uncorrected_energy_per_atom": [-9.253502], "universal_anisotropy": [0.003], "volume": [95.61022], "cbm": [2.1831], "e_electronic": [3.233764], "e_ionic": [4.271562], "e_total": [7.505326], "equilibrium_reaction_energy_per_atom": [-0.08552887], "n": [1.798267], "vbm": [-1.4325]}