{"includesElement": ["", "Sn", "La", "Ru"], "includesElement___series_id": [7, 9, 8], "includesElement__abundance_crust": [2.3, 39.0, 0.001], "includesElement__atomic_number": [50, 57, 44], "includesElement__atomic_radius": [145.0, 195.0, 130.0], "includesElement__atomic_radius_rahm": [248.0, 284.0, 237.0], "includesElement__atomic_volume": [16.3, 22.5, 8.3], "includesElement__atomic_weight": [118.71, 138.9055, 101.07], "includesElement__covalent_radius_cordero": [139.0, 207.0, 146.0], "includesElement__covalent_radius_pyykko": [140.0, 180.0, 125.0], "includesElement__covalent_radius_pyykko_double": [130.0, 139.0, 114.0], "includesElement__covalent_radius_pyykko_triple": [132.0, 139.0, 103.0], "includesElement__density": [7.287, 6.15, 12.1], "includesElement__dipole_polarizability": [53.0, 215.0, 72.0], "includesElement__dipole_polarizability_unc": [6.0, 20.0, 10.0], "includesElement__electron_affinity": [1.112067, 0.47, 1.05], "includesElement__electronegativity_allred-rochow": [0.0002882653, 9.259259e-05, 0.000208], "includesElement__electronegativity_cottrell-sutton": [0.2008909, 0.1290994, 0.1612452], "includesElement__electronegativity_ghosh": [0.178052, 0.163142, 0.1376494], "includesElement__electronegativity_gordy": [0.04035714, 0.01666667, 0.026], "includesElement__electronegativity_mulliken": [4.227992, 3.02345, 4.20525], "includesElement__electronegativity_nagle": [0.4225986, 0.240747, 0.4807499], "includesElement__electronegativity_pauling": [1.96, 1.1, 2.2], "includesElement__electronegativity_sanderson": [0.7622797, 0.3946505, 0.9579373], "includesElement__en_ghosh": [0.178052, 0.163142, 0.1376494], "includesElement__en_pauling": [1.96, 1.1, 2.2], "includesElement__evaporation_heat": [296.0, 402.0], "includesElement__fusion_heat": [7.07, 8.5, 25.5], "includesElement__glawe_number": [83, 32, 61], "includesElement__group_id": [14, 3, 8], "includesElement__heat_of_formation": [301.2, 431.0, 650.6], "includesElement__is_radioactive": [false], "includesElement__lattice_constant": [5.82, 3.75, 2.7], "includesElement__mendeleev_number": [90, 13, 60], "includesElement__molar_heat_capacity": [26.99, 27.11, 24.06], "includesElement__period": [5, 6], "includesElement__pettifor_number": [83, 33, 63], "includesElement__specific_heat_capacity": [0.227, 0.195, 0.238], "includesElement__vdw_radius": [217.0, 243.0, 213.0], "includesElement__vdw_radius_alvarez": [242.0, 298.0, 246.0], "includesElement__vdw_radius_mm3": [259.0, 278.0, 234.0], "includesElement__vdw_radius_uff": [439.2, 352.2, 296.3], "includesElement__abundance_sea": [4e-06, 3.4e-06, 7e-07], "includesElement__atomic_weight_uncertainty": [0.007, 7e-05, 0.02], "includesElement__c6_gb": [715.0, 3730.0, 809.0], "includesElement__covalent_radius_bragg": [140.0], "includesElement__electronegativity_allen": [10.79, 9.1], "includesElement__en_allen": [10.79, 9.1], "includesElement__metallic_radius": [142.0, 169.0, 125.0], "includesElement__metallic_radius_c12": [163.0, 187.0, 134.0], "includesElement__thermal_conductivity": [66.8, 13.4, 117.0], "includesElement__vdw_radius_batsanov": [225.0, 250.0, 205.0], "includesElement__c6": [659.0], "includesElement__vdw_radius_dreiding": [447.0], "includesElement__vdw_radius_bondi": [217.0], "includesElement__discovery_year": [1839, 1844], "includesElement__gas_basicity": [991.9, 751.4], "includesElement__proton_affinity": [1013.0, 774.0], "formula": ["La8Ru8Sn24"], "spacegroup": ["223"], "thermalConductivity": [0.683262], "icsd": ["104715"], "band_gap": [0.0], "density": [8.343349], "density_atomic": [23.72804], "deprecated": [false], "efermi": [8.978144], "energy_above_hull": [0.0], "energy_per_atom": [-5.779009], "formation_energy_per_atom": [-0.5311843], "is_gap_direct": [false], "is_magnetic": [true], "is_metal": [true], "is_stable": [true], "nelements": [3], "nsites": [40], "num_magnetic_sites": [8], "num_unique_magnetic_sites": [1], "theoretical": [false], "total_magnetization": [1.265403], "total_magnetization_normalized_formula_units": [0.1581754], "total_magnetization_normalized_vol": [0.001333236], "uncorrected_energy_per_atom": [-26.44753], "volume": [949.1214], "equilibrium_reaction_energy_per_atom": [-0.02521607]}