{"includesElement": ["", "Li", "O", "Rh"], "includesElement___series_id": [3, 1, 8], "includesElement__abundance_crust": [20.0, 461000.0, 0.001], "includesElement__atomic_number": [3, 8, 45], "includesElement__atomic_radius": [145.0, 60.0, 135.0], "includesElement__atomic_radius_rahm": [220.0, 171.0, 233.0], "includesElement__atomic_volume": [13.1, 14.0, 8.3], "includesElement__atomic_weight": [6.94, 15.999, 102.9055], "includesElement__covalent_radius_cordero": [128.0, 66.0, 142.0], "includesElement__covalent_radius_pyykko": [133.0, 63.0, 125.0], "includesElement__covalent_radius_pyykko_double": [124.0, 57.0, 110.0], "includesElement__density": [0.534, 0.001308, 12.4], "includesElement__dipole_polarizability": [164.1125, 5.3, 66.0], "includesElement__dipole_polarizability_unc": [0.0005, 0.2, 10.0], "includesElement__discovery_year": [1817, 1774, 1803], "includesElement__electron_affinity": [0.618049, 1.461113, 1.137], "includesElement__electronegativity_allred-rochow": [7.3492e-05, 0.001146384, 0.0002176], "includesElement__electronegativity_cottrell-sutton": [0.09886575, 0.2687419, 0.1649242], "includesElement__electronegativity_ghosh": [0.105093, 0.304575, 0.1408379], "includesElement__electronegativity_gordy": [0.009774436, 0.07222222, 0.0272], "includesElement__electronegativity_mulliken": [3.004882, 7.539584, 4.29795], "includesElement__electronegativity_nagle": [0.1826499, 1.042218, 0.5147142], "includesElement__electronegativity_pauling": [0.98, 3.44, 2.28], "includesElement__electronegativity_sanderson": [0.04886793, 0.9416494, 0.9761915], "includesElement__en_ghosh": [0.105093, 0.304575, 0.1408379], "includesElement__en_pauling": [0.98, 3.44, 2.28], "includesElement__evaporation_heat": [148.0, 494.0], "includesElement__fusion_heat": [2.89, 21.8], "includesElement__glawe_number": [12, 97, 63], "includesElement__group_id": [1, 16, 9], "includesElement__heat_of_formation": [159.3, 249.229, 556.0], "includesElement__is_radioactive": [false], "includesElement__lattice_constant": [3.49, 6.83, 3.8], "includesElement__mendeleev_number": [1, 99, 64], "includesElement__molar_heat_capacity": [24.86, 29.378, 24.98], "includesElement__period": [2, 5], "includesElement__pettifor_number": [12, 101, 66], "includesElement__specific_heat_capacity": [3.582, 0.918, 0.243], "includesElement__vdw_radius": [182.0, 152.0, 210.0], "includesElement__vdw_radius_alvarez": [212.0, 150.0, 244.0], "includesElement__vdw_radius_mm3": [255.0, 182.0, 234.0], "includesElement__vdw_radius_uff": [245.1, 350.0, 292.9], "includesElement__abundance_sea": [0.18, 857000.0], "includesElement__c6_gb": [1410.0, 16.7, 708.0], "includesElement__covalent_radius_bragg": [150.0, 65.0], "includesElement__electronegativity_allen": [5.392, 21.36, 9.259], "includesElement__en_allen": [5.392, 21.36, 9.259], "includesElement__metallic_radius": [123.0, 125.0], "includesElement__metallic_radius_c12": [155.0, 134.0], "includesElement__thermal_conductivity": [84.8, 0.027, 150.0], "includesElement__vdw_radius_batsanov": [220.0, 155.0, 200.0], "includesElement__c6": [1392.0, 15.6], "includesElement__vdw_radius_bondi": [181.0, 152.0], "includesElement__covalent_radius_pyykko_triple": [53.0, 106.0], "includesElement__vdw_radius_dreiding": [340.46], "includesElement__gas_basicity": [459.6, 745.4], "includesElement__proton_affinity": [485.2, 768.0], "includesElement__vdw_radius_rt": [158.0], "includesElement__atomic_weight_uncertainty": [2e-05], "includesElement__is_monoisotopic": [true], "formula": ["Li4O8Rh4"], "spacegroup": ["227"], "thermalConductivity": [3.73499], "icsd": ["59179"], "band_gap": [1.38], "density": [6.201424], "density_atomic": [9.495387], "deprecated": [false], "efermi": [3.997667], "energy_above_hull": [0.008763965], "energy_per_atom": [-6.339349], "formation_energy_per_atom": [-1.54491], "homogeneous_poisson": [0.357], "is_gap_direct": [false], "is_magnetic": [false], "is_metal": [false], "is_stable": [false], "nelements": [3], "nsites": [16], "num_magnetic_sites": [0], "num_unique_magnetic_sites": [0], "theoretical": [false], "total_magnetization": [0.0], "total_magnetization_normalized_formula_units": [0.0], "total_magnetization_normalized_vol": [0.0], "uncorrected_energy_per_atom": [-11.0628], "universal_anisotropy": [1.523], "volume": [151.9262], "cbm": [5.3269], "vbm": [3.9469]}