{"includesElement": ["", "Cd", "La", "Ru"], "includesElement___series_id": [8, 9], "includesElement__abundance_crust": [0.15, 39.0, 0.001], "includesElement__atomic_number": [48, 57, 44], "includesElement__atomic_radius": [155.0, 195.0, 130.0], "includesElement__atomic_radius_rahm": [238.0, 284.0, 237.0], "includesElement__atomic_volume": [13.1, 22.5, 8.3], "includesElement__atomic_weight": [112.414, 138.9055, 101.07], "includesElement__covalent_radius_cordero": [144.0, 207.0, 146.0], "includesElement__covalent_radius_pyykko": [136.0, 180.0, 125.0], "includesElement__covalent_radius_pyykko_double": [144.0, 139.0, 114.0], "includesElement__density": [8.69, 6.15, 12.1], "includesElement__dipole_polarizability": [46.0, 215.0, 72.0], "includesElement__dipole_polarizability_unc": [2.0, 20.0, 10.0], "includesElement__discovery_year": [1817, 1839, 1844], "includesElement__electronegativity_allred-rochow": [0.000235186, 9.259259e-05, 0.000208], "includesElement__electronegativity_cottrell-sutton": [0.1788443, 0.1290994, 0.1612452], "includesElement__electronegativity_ghosh": [0.1504066, 0.163142, 0.1376494], "includesElement__electronegativity_gordy": [0.03198529, 0.01666667, 0.026], "includesElement__electronegativity_mulliken": [4.496911, 3.02345, 4.20525], "includesElement__electronegativity_nagle": [0.6389612, 0.240747, 0.4807499], "includesElement__electronegativity_pauling": [1.69, 1.1, 2.2], "includesElement__electronegativity_sanderson": [0.801562, 0.3946505, 0.9579373], "includesElement__en_ghosh": [0.1504066, 0.163142, 0.1376494], "includesElement__en_pauling": [1.69, 1.1, 2.2], "includesElement__evaporation_heat": [59.1, 402.0], "includesElement__fusion_heat": [6.11, 8.5, 25.5], "includesElement__glawe_number": [75, 32, 61], "includesElement__group_id": [12, 3, 8], "includesElement__heat_of_formation": [111.8, 431.0, 650.6], "includesElement__is_radioactive": [false], "includesElement__lattice_constant": [2.98, 3.75, 2.7], "includesElement__mendeleev_number": [78, 13, 60], "includesElement__molar_heat_capacity": [26.02, 27.11, 24.06], "includesElement__period": [5, 6], "includesElement__pettifor_number": [75, 33, 63], "includesElement__specific_heat_capacity": [0.232, 0.195, 0.238], "includesElement__vdw_radius": [218.0, 243.0, 213.0], "includesElement__vdw_radius_alvarez": [249.0, 298.0, 246.0], "includesElement__vdw_radius_mm3": [250.0, 278.0, 234.0], "includesElement__vdw_radius_uff": [284.8, 352.2, 296.3], "includesElement__abundance_sea": [0.00011, 3.4e-06, 7e-07], "includesElement__atomic_weight_uncertainty": [0.004, 7e-05, 0.02], "includesElement__c6_gb": [405.0, 3730.0, 809.0], "includesElement__covalent_radius_bragg": [160.0], "includesElement__electronegativity_allen": [8.995, 9.1], "includesElement__en_allen": [8.995, 9.1], "includesElement__metallic_radius": [138.0, 169.0, 125.0], "includesElement__metallic_radius_c12": [151.0, 187.0, 134.0], "includesElement__thermal_conductivity": [96.9, 13.4, 117.0], "includesElement__vdw_radius_batsanov": [220.0, 250.0, 205.0], "includesElement__covalent_radius_pyykko_triple": [139.0, 103.0], "includesElement__electron_affinity": [0.47, 1.05], "includesElement__gas_basicity": [991.9, 751.4], "includesElement__proton_affinity": [1013.0, 774.0], "formula": ["Cd4La16Ru4"], "spacegroup": ["216"], "thermalConductivity": [0.909134], "icsd": ["419069"], "band_gap": [0.0], "density": [7.12506], "density_atomic": [29.87402], "deprecated": [false], "efermi": [7.292698], "energy_above_hull": [0.0], "energy_per_atom": [-5.29201], "formation_energy_per_atom": [-0.2956029], "is_gap_direct": [false], "is_magnetic": [false], "is_metal": [true], "is_stable": [true], "nelements": [3], "nsites": [24], "num_magnetic_sites": [0], "num_unique_magnetic_sites": [0], "theoretical": [false], "total_magnetization": [0.2097804], "total_magnetization_normalized_formula_units": [0.0524451], "total_magnetization_normalized_vol": [0.0002925903], "uncorrected_energy_per_atom": [-27.75275], "volume": [716.9766], "cbm": [7.2779], "equilibrium_reaction_energy_per_atom": [-0.034472], "vbm": [7.3022]}