{"includesElement": ["", "Mg", "Th"], "includesElement___series_id": [4, 10], "includesElement__abundance_crust": [23300.0, 9.6], "includesElement__atomic_number": [12, 90], "includesElement__atomic_radius": [150.0, 180.0], "includesElement__atomic_radius_rahm": [240.0, 288.0], "includesElement__atomic_volume": [14.0, 19.8], "includesElement__atomic_weight": [24.305, 232.0377], "includesElement__covalent_radius_cordero": [141.0, 206.0], "includesElement__covalent_radius_pyykko": [139.0, 175.0], "includesElement__covalent_radius_pyykko_double": [132.0, 143.0], "includesElement__covalent_radius_pyykko_triple": [127.0, 136.0], "includesElement__density": [1.74, 11.7], "includesElement__dipole_polarizability": [71.2, 217.0], "includesElement__dipole_polarizability_unc": [0.4, 54.0], "includesElement__discovery_year": [1808, 1828], "includesElement__electronegativity_allred-rochow": [0.0001475079, 0.0001028571], "includesElement__electronegativity_cottrell-sutton": [0.1431908, 0.1341641], "includesElement__electronegativity_ghosh": [0.121644, 0.10277], "includesElement__electronegativity_gordy": [0.0205036, 0.018], "includesElement__electronegativity_mulliken": [3.823117, 3.15335], "includesElement__electronegativity_nagle": [0.3039835, 0.2641598], "includesElement__electronegativity_pauling": [1.31, 1.3], "includesElement__electronegativity_sanderson": [0.1524211, 0.5557019], "includesElement__en_ghosh": [0.121644, 0.10277], "includesElement__en_pauling": [1.31, 1.3], "includesElement__evaporation_heat": [131.8, 513.7], "includesElement__fusion_heat": [9.2, 16.11], "includesElement__glawe_number": [73, 34], "includesElement__group_id": [2], "includesElement__heat_of_formation": [147.1, 602.0], "includesElement__is_radioactive": [false, true], "includesElement__lattice_constant": [3.21, 5.08], "includesElement__mendeleev_number": [76, 16], "includesElement__molar_heat_capacity": [24.869, 27.32], "includesElement__period": [3, 7], "includesElement__pettifor_number": [73, 47], "includesElement__specific_heat_capacity": [1.023, 0.118], "includesElement__vdw_radius": [173.0, 245.0], "includesElement__vdw_radius_alvarez": [251.0, 293.0], "includesElement__vdw_radius_mm3": [243.0, 274.0], "includesElement__vdw_radius_uff": [302.1, 339.6], "includesElement__abundance_sea": [1290.0, 1e-06], "includesElement__c6_gb": [629.0], "includesElement__covalent_radius_bragg": [142.0], "includesElement__electronegativity_allen": [7.646], "includesElement__en_allen": [7.646], "includesElement__metallic_radius": [136.0], "includesElement__metallic_radius_c12": [160.0], "includesElement__thermal_conductivity": [156.0], "includesElement__vdw_radius_batsanov": [220.0, 240.0], "includesElement__c6": [626.0], "includesElement__gas_basicity": [797.3], "includesElement__proton_affinity": [819.6], "includesElement__vdw_radius_bondi": [173.0], "includesElement__atomic_weight_uncertainty": [0.0004], "formula": ["Mg4Th2"], "spacegroup": ["227"], "thermalConductivity": [3.5876], "icsd": ["104883"], "band_gap": [0.0], "density": [5.958583], "density_atomic": [26.07035], "deprecated": [false], "efermi": [5.108116], "energy_above_hull": [0.02771282], "energy_per_atom": [-3.530553], "formation_energy_per_atom": [0.02771282], "homogeneous_poisson": [0.336], "is_gap_direct": [false], "is_magnetic": [false], "is_metal": [true], "is_stable": [false], "nelements": [2], "nsites": [6], "num_magnetic_sites": [0], "num_unique_magnetic_sites": [0], "theoretical": [false], "total_magnetization": [0.0112841], "total_magnetization_normalized_formula_units": [0.00564205], "total_magnetization_normalized_vol": [7.213878e-05], "uncorrected_energy_per_atom": [-27.26122], "universal_anisotropy": [0.346], "volume": [156.4221]}