{"includesElement": ["", "Co", "B", "Re"], "includesElement___series_id": [8, 5], "includesElement__abundance_crust": [25.0, 10.0, 0.0007], "includesElement__atomic_number": [27, 5, 75], "includesElement__atomic_radius": [135.0, 85.0], "includesElement__atomic_radius_rahm": [233.0, 205.0, 249.0], "includesElement__atomic_volume": [6.7, 4.6, 8.85], "includesElement__atomic_weight": [58.93319, 10.81, 186.207], "includesElement__covalent_radius_cordero": [138.0, 84.0, 151.0], "includesElement__covalent_radius_pyykko": [111.0, 85.0, 131.0], "includesElement__covalent_radius_pyykko_double": [103.0, 78.0, 119.0], "includesElement__covalent_radius_pyykko_triple": [96.0, 73.0, 110.0], "includesElement__density": [8.86, 2.34, 20.8], "includesElement__dipole_polarizability": [55.0, 20.5, 62.0], "includesElement__dipole_polarizability_unc": [4.0, 0.1, 3.0], "includesElement__discovery_year": [1739, 1808, 1925], "includesElement__electron_affinity": [0.6622565, 0.279723, 0.15], "includesElement__electronegativity_allred-rochow": [0.0003165327, 0.0003598616, 0.000209778], "includesElement__electronegativity_cottrell-sutton": [0.1874437, 0.1748949, 0.1657737], "includesElement__electronegativity_ghosh": [0.1432363, 0.184886, 0.2435164], "includesElement__electronegativity_gordy": [0.03513514, 0.03058824, 0.02748092], "includesElement__electronegativity_mulliken": [4.271633, 4.288871, 3.99176], "includesElement__electronegativity_nagle": [0.5469655, 0.5269739, 0.4833208], "includesElement__electronegativity_pauling": [1.88, 2.04, 1.9], "includesElement__electronegativity_sanderson": [0.8832424, 0.2546274, 1.174592], "includesElement__en_ghosh": [0.1432363, 0.184886, 0.2435164], "includesElement__en_pauling": [1.88, 2.04, 1.9], "includesElement__evaporation_heat": [389.1, 504.5, 704.0], "includesElement__fusion_heat": [15.48, 23.6, 34.0], "includesElement__glawe_number": [70, 86, 58], "includesElement__group_id": [9, 13, 7], "includesElement__heat_of_formation": [426.7, 565.0, 774.0], "includesElement__is_radioactive": [false], "includesElement__lattice_constant": [2.51, 8.73, 2.76], "includesElement__mendeleev_number": [63, 81, 57], "includesElement__molar_heat_capacity": [24.81, 11.087, 25.48], "includesElement__period": [4, 2, 6], "includesElement__pettifor_number": [64, 86, 59], "includesElement__specific_heat_capacity": [0.421, 1.026, 0.137], "includesElement__vdw_radius": [200.0, 192.0, 216.0], "includesElement__vdw_radius_alvarez": [240.0, 191.0, 249.0], "includesElement__vdw_radius_mm3": [223.0, 215.0, 237.0], "includesElement__vdw_radius_uff": [287.2, 408.3, 295.4], "includesElement__abundance_sea": [2e-05, 4.44, 4e-06], "includesElement__atomic_weight_uncertainty": [4e-06, 0.001], "includesElement__c6_gb": [461.0, 99.2, 663.0], "includesElement__covalent_radius_bragg": [137.0], "includesElement__electronegativity_allen": [10.86, 12.13, 9.46], "includesElement__en_allen": [10.86, 12.13, 9.46], "includesElement__metallic_radius": [116.0, 80.0, 128.0], "includesElement__metallic_radius_c12": [125.0, 98.0, 137.0], "includesElement__thermal_conductivity": [100.0, 27.4, 48.0], "includesElement__vdw_radius_batsanov": [200.0, 180.0, 205.0], "includesElement__c6": [408.0, 99.5], "includesElement__is_monoisotopic": [true], "includesElement__gas_basicity": [719.8], "includesElement__proton_affinity": [742.7], "includesElement__vdw_radius_dreiding": [402.0], "includesElement__vdw_radius_truhlar": [192.0], "formula": ["B4Co4Re4"], "spacegroup": ["62"], "thermalConductivity": [6.86801], "icsd": ["20079"], "band_gap": [0.0], "density": [14.10543], "density_atomic": [10.04381], "deprecated": [false], "efermi": [8.137121], "energy_above_hull": [0.008917876], "energy_per_atom": [-24.55772], "formation_energy_per_atom": [-0.2273225], "homogeneous_poisson": [0.344], "is_gap_direct": [false], "is_magnetic": [false], "is_metal": [true], "is_stable": [false], "nelements": [3], "nsites": [12], "num_magnetic_sites": [0], "num_unique_magnetic_sites": [0], "theoretical": [false], "total_magnetization": [0.0072196], "total_magnetization_normalized_formula_units": [0.0018049], "total_magnetization_normalized_vol": [5.990089e-05], "uncorrected_energy_per_atom": [-9.018697], "universal_anisotropy": [3.106], "volume": [120.5258]}