{"includesElement": ["", "Pt", "U"], "includesElement___series_id": [8, 10], "includesElement__abundance_crust": [0.005, 2.7], "includesElement__atomic_number": [78, 92], "includesElement__atomic_radius": [135.0, 175.0], "includesElement__atomic_radius_rahm": [230.0, 283.0], "includesElement__atomic_volume": [9.1, 12.5], "includesElement__atomic_weight": [195.084, 238.0289], "includesElement__covalent_radius_cordero": [136.0, 196.0], "includesElement__covalent_radius_pyykko": [123.0, 170.0], "includesElement__covalent_radius_pyykko_double": [112.0, 134.0], "includesElement__covalent_radius_pyykko_triple": [110.0, 118.0], "includesElement__density": [21.5, 19.1], "includesElement__dipole_polarizability": [48.0, 129.0], "includesElement__dipole_polarizability_unc": [4.0, 17.0], "includesElement__discovery_year": [1735, 1789], "includesElement__electron_affinity": [2.128], "includesElement__electronegativity_allred-rochow": [0.0002346487, 0.0001038062], "includesElement__electronegativity_cottrell-sutton": [0.1698876, 0.1328422], "includesElement__electronegativity_ghosh": [0.25691, 0.13207], "includesElement__electronegativity_gordy": [0.02886179, 0.01764706], "includesElement__electronegativity_mulliken": [5.543415, 3.097025], "includesElement__electronegativity_nagle": [0.5928156, 0.3596283], "includesElement__electronegativity_pauling": [2.2, 1.7], "includesElement__electronegativity_sanderson": [1.45101, 0.618118], "includesElement__en_ghosh": [0.25691, 0.13207], "includesElement__en_pauling": [2.2, 1.7], "includesElement__evaporation_heat": [470.0, 417.0], "includesElement__fusion_heat": [21.76, 12.6], "includesElement__glawe_number": [64, 36], "includesElement__group_id": [10], "includesElement__heat_of_formation": [565.7, 533.0], "includesElement__is_radioactive": [false, true], "includesElement__lattice_constant": [3.92, 2.85], "includesElement__mendeleev_number": [69, 20], "includesElement__molar_heat_capacity": [25.86, 27.665], "includesElement__period": [6, 7], "includesElement__pettifor_number": [68, 45], "includesElement__specific_heat_capacity": [0.133, 0.116], "includesElement__vdw_radius": [213.0, 241.0], "includesElement__vdw_radius_alvarez": [229.0, 271.0], "includesElement__vdw_radius_mm3": [239.0, 252.0], "includesElement__vdw_radius_uff": [275.4, 339.5], "includesElement__atomic_weight_uncertainty": [0.009, 3e-05], "includesElement__c6_gb": [470.0], "includesElement__electronegativity_allen": [10.16], "includesElement__en_allen": [10.16], "includesElement__metallic_radius": [130.0], "includesElement__metallic_radius_c12": [139.0], "includesElement__thermal_conductivity": [71.6, 27.5], "includesElement__vdw_radius_batsanov": [205.0, 230.0], "includesElement__abundance_sea": [0.0032], "includesElement__gas_basicity": [973.2], "includesElement__proton_affinity": [995.2], "formula": ["Pt2U2"], "spacegroup": ["63"], "thermalConductivity": [1.77279], "icsd": ["105826"], "band_gap": [0.0], "density": [15.75434], "density_atomic": [22.82548], "deprecated": [false], "efermi": [9.564265], "energy_above_hull": [0.0], "energy_per_atom": [-66.5887], "formation_energy_per_atom": [-0.873825], "is_gap_direct": [false], "is_magnetic": [true], "is_metal": [true], "is_stable": [true], "nelements": [2], "nsites": [4], "num_magnetic_sites": [2], "num_unique_magnetic_sites": [1], "theoretical": [false], "total_magnetization": [5.375068], "total_magnetization_normalized_formula_units": [2.687534], "total_magnetization_normalized_vol": [0.05887135], "uncorrected_energy_per_atom": [-66.5887], "volume": [91.30194], "equilibrium_reaction_energy_per_atom": [-0.1668853]}