{"includesElement": ["Sn", "Au", "Gd"], "includesElement___series_id": [7, 8, 9], "includesElement__abundance_crust": [2.3, 0.004, 6.2], "includesElement__atomic_number": [50, 79, 64], "includesElement__atomic_radius": [145.0, 135.0, 180.0], "includesElement__atomic_radius_rahm": [248.0, 226.0, 277.0], "includesElement__atomic_volume": [16.3, 10.2, 19.9], "includesElement__atomic_weight": [118.71, 196.9666, 157.25], "includesElement__covalent_radius_cordero": [139.0, 136.0, 196.0], "includesElement__covalent_radius_pyykko": [140.0, 124.0, 169.0], "includesElement__covalent_radius_pyykko_double": [130.0, 121.0, 135.0], "includesElement__covalent_radius_pyykko_triple": [132.0, 123.0], "includesElement__density": [7.287, 19.3, 7.9], "includesElement__dipole_polarizability": [53.0, 36.0, 158.0], "includesElement__dipole_polarizability_unc": [6.0, 3.0, 20.0], "includesElement__electron_affinity": [1.112067, 2.30863], "includesElement__electronegativity_allred-rochow": [0.0002882653, 0.0002406348, 0.0001050383], "includesElement__electronegativity_cottrell-sutton": [0.2008909, 0.1727388, 0.1332347], "includesElement__electronegativity_ghosh": [0.178052, 0.26137, 0.1944], "includesElement__electronegativity_gordy": [0.04035714, 0.02983871, 0.01775148], "includesElement__electronegativity_mulliken": [4.227992, 5.767091, 3.074898], "includesElement__electronegativity_nagle": [0.4225986, 0.67354, 0.3985177], "includesElement__electronegativity_pauling": [1.96, 2.4, 1.2], "includesElement__electronegativity_sanderson": [0.7622797, 1.426701, 0.503386], "includesElement__en_ghosh": [0.178052, 0.26137, 0.1944], "includesElement__en_pauling": [1.96, 2.4, 1.2], "includesElement__evaporation_heat": [296.0, 340.0, 398.0], "includesElement__fusion_heat": [7.07, 12.68], "includesElement__glawe_number": [83, 66, 26], "includesElement__group_id": [14, 11], "includesElement__heat_of_formation": [301.2, 368.2, 397.5], "includesElement__is_radioactive": [false], "includesElement__lattice_constant": [5.82, 4.08, 3.64], "includesElement__mendeleev_number": [90, 73, 27], "includesElement__molar_heat_capacity": [26.99, 25.418, 37.03], "includesElement__period": [5, 6], "includesElement__pettifor_number": [83, 70, 27], "includesElement__specific_heat_capacity": [0.227, 0.129, 0.236], "includesElement__vdw_radius": [217.0, 214.0, 234.0], "includesElement__vdw_radius_alvarez": [242.0, 232.0, 283.0], "includesElement__vdw_radius_mm3": [259.0, 243.0, 271.0], "includesElement__vdw_radius_uff": [439.2, 329.3, 336.8], "includesElement__abundance_sea": [4e-06, 7e-07], "includesElement__atomic_weight_uncertainty": [0.007, 5e-06, 0.03], "includesElement__c6_gb": [715.0, 427.0, 2340.0], "includesElement__covalent_radius_bragg": [140.0], "includesElement__electronegativity_allen": [10.79, 11.33], "includesElement__en_allen": [10.79, 11.33], "includesElement__metallic_radius": [142.0, 134.0], "includesElement__metallic_radius_c12": [163.0, 144.0], "includesElement__thermal_conductivity": [66.8, 318.0], "includesElement__vdw_radius_batsanov": [225.0, 210.0], "includesElement__c6": [659.0], "includesElement__vdw_radius_dreiding": [447.0], "includesElement__vdw_radius_bondi": [217.0], "includesElement__is_monoisotopic": [true], "includesElement__discovery_year": [1880], "formula": ["GdSnAu"], "mp_id": ["20514"], "thermalConductivity": [3.73], "band_gap": [0.0], "density": [10.21722], "density_atomic": [25.62057], "deprecated": [false], "efermi": [5.189402], "energy_above_hull": [0.0], "energy_per_atom": [-40.49151], "formation_energy_per_atom": [-0.9154632], "is_gap_direct": [false], "is_magnetic": [true], "is_metal": [true], "is_stable": [true], "nelements": [3], "nsites": [3], "num_magnetic_sites": [1], "num_unique_magnetic_sites": [1], "theoretical": [true], "total_magnetization": [7.011213], "total_magnetization_normalized_formula_units": [7.011213], "total_magnetization_normalized_vol": [0.09121856], "uncorrected_energy_per_atom": [-40.49151], "volume": [76.8617], "equilibrium_reaction_energy_per_atom": [-0.1768433]}