{"includesElement": ["", "Rh", "Gd"], "includesElement___series_id": [8, 9], "includesElement__abundance_crust": [0.001, 6.2], "includesElement__atomic_number": [45, 64], "includesElement__atomic_radius": [135.0, 180.0], "includesElement__atomic_radius_rahm": [233.0, 277.0], "includesElement__atomic_volume": [8.3, 19.9], "includesElement__atomic_weight": [102.9055, 157.25], "includesElement__covalent_radius_cordero": [142.0, 196.0], "includesElement__covalent_radius_pyykko": [125.0, 169.0], "includesElement__covalent_radius_pyykko_double": [110.0, 135.0], "includesElement__covalent_radius_pyykko_triple": [106.0, 132.0], "includesElement__density": [12.4, 7.9], "includesElement__dipole_polarizability": [66.0, 158.0], "includesElement__dipole_polarizability_unc": [10.0, 20.0], "includesElement__discovery_year": [1803, 1880], "includesElement__electron_affinity": [1.137], "includesElement__electronegativity_allred-rochow": [0.0002176, 0.0001050383], "includesElement__electronegativity_cottrell-sutton": [0.1649242, 0.1332347], "includesElement__electronegativity_ghosh": [0.1408379, 0.1944], "includesElement__electronegativity_gordy": [0.0272, 0.01775148], "includesElement__electronegativity_mulliken": [4.29795, 3.074898], "includesElement__electronegativity_nagle": [0.5147142, 0.3985177], "includesElement__electronegativity_pauling": [2.28, 1.2], "includesElement__electronegativity_sanderson": [0.9761915, 0.503386], "includesElement__en_ghosh": [0.1408379, 0.1944], "includesElement__en_pauling": [2.28, 1.2], "includesElement__evaporation_heat": [494.0, 398.0], "includesElement__fusion_heat": [21.8], "includesElement__glawe_number": [63, 26], "includesElement__group_id": [9], "includesElement__heat_of_formation": [556.0, 397.5], "includesElement__is_radioactive": [false], "includesElement__lattice_constant": [3.8, 3.64], "includesElement__mendeleev_number": [64, 27], "includesElement__molar_heat_capacity": [24.98, 37.03], "includesElement__period": [5, 6], "includesElement__pettifor_number": [66, 27], "includesElement__specific_heat_capacity": [0.243, 0.236], "includesElement__vdw_radius": [210.0, 234.0], "includesElement__vdw_radius_alvarez": [244.0, 283.0], "includesElement__vdw_radius_mm3": [234.0, 271.0], "includesElement__vdw_radius_uff": [292.9, 336.8], "includesElement__atomic_weight_uncertainty": [2e-05, 0.03], "includesElement__c6_gb": [708.0, 2340.0], "includesElement__electronegativity_allen": [9.259], "includesElement__en_allen": [9.259], "includesElement__metallic_radius": [125.0], "includesElement__metallic_radius_c12": [134.0], "includesElement__thermal_conductivity": [150.0], "includesElement__vdw_radius_batsanov": [200.0], "includesElement__is_monoisotopic": [true], "includesElement__gas_basicity": [745.4], "includesElement__proton_affinity": [768.0], "includesElement__abundance_sea": [7e-07], "formula": ["Gd1Rh1"], "spacegroup": ["221"], "thermalConductivity": [4.44138], "icsd": ["104125"], "band_gap": [0.0], "density": [10.53897], "density_atomic": [20.49528], "deprecated": [false], "efermi": [4.421129], "energy_above_hull": [0.0], "energy_per_atom": [-34.55825], "formation_energy_per_atom": [-0.7916289], "is_gap_direct": [false], "is_magnetic": [true], "is_metal": [true], "is_stable": [true], "nelements": [2], "nsites": [2], "num_magnetic_sites": [2], "num_unique_magnetic_sites": [2], "theoretical": [false], "total_magnetization": [6.99464], "total_magnetization_normalized_formula_units": [6.99464], "total_magnetization_normalized_vol": [0.1706402], "uncorrected_energy_per_atom": [-34.55825], "volume": [40.99057], "equilibrium_reaction_energy_per_atom": [-0.2350192]}