{"includesElement": ["", "Si", "F", "Cs"], "includesElement___series_id": [5, 6, 3], "includesElement__abundance_crust": [282000.0, 585.0, 3.0], "includesElement__atomic_number": [14, 9, 55], "includesElement__atomic_radius": [110.0, 50.0, 260.0], "includesElement__atomic_radius_rahm": [232.0, 163.0, 249.0], "includesElement__atomic_volume": [12.1, 17.1, 70.0], "includesElement__atomic_weight": [28.085, 18.9984, 132.9055], "includesElement__covalent_radius_cordero": [111.0, 57.0, 244.0], "includesElement__covalent_radius_pyykko": [116.0, 64.0, 232.0], "includesElement__covalent_radius_pyykko_double": [107.0, 59.0, 209.0], "includesElement__covalent_radius_pyykko_triple": [102.0, 53.0], "includesElement__density": [2.3296, 0.001553, 1.873], "includesElement__dipole_polarizability": [37.3, 3.74, 400.9], "includesElement__dipole_polarizability_unc": [0.7, 0.08], "includesElement__discovery_year": [1824, 1886, 1860], "includesElement__electron_affinity": [1.389521, 3.40119, 0.471626], "includesElement__electronegativity_allred-rochow": [0.0003084126, 0.001269531, 4.087396e-05], "includesElement__electronegativity_cottrell-sutton": [0.1891451, 0.2850439, 0.09737946], "includesElement__electronegativity_ghosh": [0.178503, 0.344443, 0.1542125], "includesElement__electronegativity_gordy": [0.03577586, 0.08125, 0.009482759], "includesElement__electronegativity_mulliken": [4.770602, 10.412, 2.182766], "includesElement__electronegativity_nagle": [0.4750986, 1.232373, 0.1356192], "includesElement__electronegativity_pauling": [1.9, 3.98, 0.79], "includesElement__electronegativity_sanderson": [0.3468158, 1.017681, 0.1814531], "includesElement__en_ghosh": [0.178503, 0.344443, 0.1542125], "includesElement__en_pauling": [1.9, 3.98, 0.79], "includesElement__evaporation_heat": [383.0, 6.54, 68.3], "includesElement__fusion_heat": [50.6, 0.51, 2.09], "includesElement__glawe_number": [85, 102, 8], "includesElement__group_id": [14, 17, 1], "includesElement__heat_of_formation": [450.0, 79.335, 76.5], "includesElement__is_radioactive": [false], "includesElement__lattice_constant": [5.43, 6.05], "includesElement__mendeleev_number": [88, 106, 5], "includesElement__molar_heat_capacity": [19.99, 31.304, 32.21], "includesElement__period": [3, 2, 6], "includesElement__pettifor_number": [85, 102, 8], "includesElement__specific_heat_capacity": [0.712, 0.824, 0.242], "includesElement__vdw_radius": [210.0, 147.0, 343.0], "includesElement__vdw_radius_alvarez": [219.0, 146.0, 348.0], "includesElement__vdw_radius_mm3": [229.0, 171.0, 344.0], "includesElement__vdw_radius_uff": [429.5, 336.4, 451.7], "includesElement__abundance_sea": [2.2, 1.3, 0.0003], "includesElement__c6_gb": [308.0, 10.2, 6660.0], "includesElement__covalent_radius_bragg": [117.0, 67.0, 237.0], "includesElement__electronegativity_allen": [11.33, 24.8, 3.898], "includesElement__en_allen": [11.33, 24.8, 3.898], "includesElement__metallic_radius": [117.0, 235.0], "includesElement__metallic_radius_c12": [138.0, 267.0], "includesElement__thermal_conductivity": [149.0, 0.028, 35.9], "includesElement__vdw_radius_batsanov": [210.0, 150.0, 300.0], "includesElement__c6": [305.0, 9.52], "includesElement__vdw_radius_dreiding": [427.0, 347.2], "includesElement__gas_basicity": [814.1, 315.1], "includesElement__proton_affinity": [837.0, 340.1], "includesElement__vdw_radius_bondi": [210.0, 147.0], "includesElement__atomic_weight_uncertainty": [6e-09, 6e-08], "includesElement__is_monoisotopic": [true], "includesElement__vdw_radius_rt": [146.0], "includesElement__vdw_radius_truhlar": [343.0], "formula": ["Cs2F6Si1"], "spacegroup": ["225"], "thermalConductivity": [1.34969], "icsd": ["38548"], "band_gap": [6.8901], "density": [3.937602], "density_atomic": [19.11237], "deprecated": [false], "efermi": [-2.487607], "energy_above_hull": [0.0], "energy_per_atom": [-12.02801], "formation_energy_per_atom": [-3.393106], "homogeneous_poisson": [0.319], "is_gap_direct": [true], "is_magnetic": [false], "is_metal": [false], "is_stable": [true], "nelements": [3], "nsites": [9], "num_magnetic_sites": [0], "num_unique_magnetic_sites": [0], "theoretical": [false], "total_magnetization": [0.0], "total_magnetization_normalized_formula_units": [0.0], "total_magnetization_normalized_vol": [0.0], "uncorrected_energy_per_atom": [-12.02801], "universal_anisotropy": [0.001], "volume": [172.0113], "cbm": [4.3364], "e_electronic": [1.9659], "e_ionic": [3.374983], "e_total": [5.340883], "equilibrium_reaction_energy_per_atom": [-0.09237439], "n": [1.402106], "vbm": [-2.5537]}