{"includesElement": ["", "Be", "Mo"], "includesElement___series_id": [4, 8], "includesElement__abundance_crust": [2.8, 1.2], "includesElement__atomic_number": [4, 42], "includesElement__atomic_radius": [105.0, 145.0], "includesElement__atomic_radius_rahm": [219.0, 244.0], "includesElement__atomic_volume": [5.0, 9.4], "includesElement__atomic_weight": [9.012183, 95.95], "includesElement__covalent_radius_cordero": [96.0, 154.0], "includesElement__covalent_radius_pyykko": [102.0, 138.0], "includesElement__covalent_radius_pyykko_double": [90.0, 121.0], "includesElement__covalent_radius_pyykko_triple": [85.0, 113.0], "includesElement__density": [1.85, 10.2], "includesElement__dipole_polarizability": [37.74, 87.0], "includesElement__dipole_polarizability_unc": [0.03, 6.0], "includesElement__discovery_year": [1798, 1778], "includesElement__electron_affinity": [-2.4, 0.748], "includesElement__electronegativity_allred-rochow": [0.0001874279, 0.0001549044], "includesElement__electronegativity_cottrell-sutton": [0.1382666, 0.1462081], "includesElement__electronegativity_ghosh": [0.144986, 0.1312672], "includesElement__electronegativity_gordy": [0.01911765, 0.02137681], "includesElement__electronegativity_mulliken": [3.461349, 3.920215], "includesElement__electronegativity_nagle": [0.3756148, 0.4100883], "includesElement__electronegativity_pauling": [1.57, 2.16], "includesElement__electronegativity_sanderson": [0.1268473, 0.685295], "includesElement__en_ghosh": [0.144986, 0.1312672], "includesElement__en_pauling": [1.57, 2.16], "includesElement__evaporation_heat": [309.0, 590.0], "includesElement__fusion_heat": [12.21, 28.0], "includesElement__glawe_number": [77, 56], "includesElement__group_id": [2, 6], "includesElement__heat_of_formation": [324.0, 658.98], "includesElement__is_radioactive": [false], "includesElement__lattice_constant": [2.29, 3.15], "includesElement__mendeleev_number": [75, 52], "includesElement__molar_heat_capacity": [16.443, 24.06], "includesElement__period": [2, 5], "includesElement__pettifor_number": [77, 55], "includesElement__specific_heat_capacity": [1.825, 0.251], "includesElement__vdw_radius": [153.0, 217.0], "includesElement__vdw_radius_alvarez": [198.0, 245.0], "includesElement__vdw_radius_mm3": [223.0, 239.0], "includesElement__vdw_radius_uff": [274.5, 305.2], "includesElement__abundance_sea": [5.6e-06, 0.01], "includesElement__atomic_weight_uncertainty": [5e-07, 0.01], "includesElement__c6_gb": [214.0, 1030.0], "includesElement__covalent_radius_bragg": [115.0], "includesElement__electronegativity_allen": [9.323, 8.71], "includesElement__en_allen": [9.323, 8.71], "includesElement__metallic_radius": [89.0, 130.0], "includesElement__metallic_radius_c12": [112.0, 139.0], "includesElement__thermal_conductivity": [201.0], "includesElement__vdw_radius_batsanov": [190.0, 210.0], "includesElement__c6": [227.0], "includesElement__is_monoisotopic": [true], "includesElement__vdw_radius_truhlar": [153.0], "formula": ["Be44Mo2"], "spacegroup": ["227"], "thermalConductivity": [12.7528], "icsd": ["58718"], "band_gap": [0.0], "density": [2.520992], "density_atomic": [8.425668], "deprecated": [false], "efermi": [4.763476], "energy_above_hull": [0.01997312], "energy_per_atom": [-4.100644], "formation_energy_per_atom": [-0.05226416], "is_gap_direct": [false], "is_magnetic": [false], "is_metal": [true], "is_stable": [false], "nelements": [2], "nsites": [46], "num_magnetic_sites": [0], "num_unique_magnetic_sites": [0], "theoretical": [false], "total_magnetization": [1.29e-05], "total_magnetization_normalized_formula_units": [6.45e-06], "total_magnetization_normalized_vol": [3.328339e-08], "uncorrected_energy_per_atom": [-5.337189], "volume": [387.5807]}