{"includesElement": ["", "Be", "F", "Cs"], "includesElement___series_id": [4, 6, 3], "includesElement__abundance_crust": [2.8, 585.0, 3.0], "includesElement__atomic_number": [4, 9, 55], "includesElement__atomic_radius": [105.0, 50.0, 260.0], "includesElement__atomic_radius_rahm": [219.0, 163.0, 249.0], "includesElement__atomic_volume": [5.0, 17.1, 70.0], "includesElement__atomic_weight": [9.012183, 18.9984, 132.9055], "includesElement__covalent_radius_cordero": [96.0, 57.0, 244.0], "includesElement__covalent_radius_pyykko": [102.0, 64.0, 232.0], "includesElement__covalent_radius_pyykko_double": [90.0, 59.0, 209.0], "includesElement__covalent_radius_pyykko_triple": [85.0, 53.0], "includesElement__density": [1.85, 0.001553, 1.873], "includesElement__dipole_polarizability": [37.74, 3.74, 400.9], "includesElement__dipole_polarizability_unc": [0.03, 0.08, 0.7], "includesElement__discovery_year": [1798, 1886, 1860], "includesElement__electron_affinity": [-2.4, 3.40119, 0.471626], "includesElement__electronegativity_allred-rochow": [0.0001874279, 0.001269531, 4.087396e-05], "includesElement__electronegativity_cottrell-sutton": [0.1382666, 0.2850439, 0.09737946], "includesElement__electronegativity_ghosh": [0.144986, 0.344443, 0.1542125], "includesElement__electronegativity_gordy": [0.01911765, 0.08125, 0.009482759], "includesElement__electronegativity_mulliken": [3.461349, 10.412, 2.182766], "includesElement__electronegativity_nagle": [0.3756148, 1.232373, 0.1356192], "includesElement__electronegativity_pauling": [1.57, 3.98, 0.79], "includesElement__electronegativity_sanderson": [0.1268473, 1.017681, 0.1814531], "includesElement__en_ghosh": [0.144986, 0.344443, 0.1542125], "includesElement__en_pauling": [1.57, 3.98, 0.79], "includesElement__evaporation_heat": [309.0, 6.54, 68.3], "includesElement__fusion_heat": [12.21, 0.51, 2.09], "includesElement__glawe_number": [77, 102, 8], "includesElement__group_id": [2, 17, 1], "includesElement__heat_of_formation": [324.0, 79.335, 76.5], "includesElement__is_radioactive": [false], "includesElement__lattice_constant": [2.29, 6.05], "includesElement__mendeleev_number": [75, 106, 5], "includesElement__molar_heat_capacity": [16.443, 31.304, 32.21], "includesElement__period": [2, 6], "includesElement__pettifor_number": [77, 102, 8], "includesElement__specific_heat_capacity": [1.825, 0.824, 0.242], "includesElement__vdw_radius": [153.0, 147.0, 343.0], "includesElement__vdw_radius_alvarez": [198.0, 146.0, 348.0], "includesElement__vdw_radius_mm3": [223.0, 171.0, 344.0], "includesElement__vdw_radius_uff": [274.5, 336.4, 451.7], "includesElement__abundance_sea": [5.6e-06, 1.3, 0.0003], "includesElement__atomic_weight_uncertainty": [5e-07, 6e-09, 6e-08], "includesElement__c6_gb": [214.0, 10.2, 6660.0], "includesElement__covalent_radius_bragg": [115.0, 67.0, 237.0], "includesElement__electronegativity_allen": [9.323, 24.8, 3.898], "includesElement__en_allen": [9.323, 24.8, 3.898], "includesElement__metallic_radius": [89.0, 235.0], "includesElement__metallic_radius_c12": [112.0, 267.0], "includesElement__thermal_conductivity": [201.0, 0.028, 35.9], "includesElement__vdw_radius_batsanov": [190.0, 150.0, 300.0], "includesElement__c6": [227.0, 9.52], "includesElement__is_monoisotopic": [true], "includesElement__vdw_radius_truhlar": [153.0, 343.0], "includesElement__vdw_radius_dreiding": [347.2], "includesElement__gas_basicity": [315.1], "includesElement__proton_affinity": [340.1], "includesElement__vdw_radius_bondi": [147.0], "includesElement__vdw_radius_rt": [146.0], "formula": ["Be1Cs1F3"], "spacegroup": ["221"], "thermalConductivity": [1.9971], "icsd": ["290357"], "band_gap": [5.3671], "density": [5.026564], "density_atomic": [13.14228], "deprecated": [false], "efermi": [-0.1995622], "energy_above_hull": [0.6625523], "energy_per_atom": [-4.819323], "formation_energy_per_atom": [-2.744807], "homogeneous_poisson": [0.354], "is_gap_direct": [false], "is_magnetic": [false], "is_metal": [false], "is_stable": [false], "nelements": [3], "nsites": [5], "num_magnetic_sites": [0], "num_unique_magnetic_sites": [0], "theoretical": [true], "total_magnetization": [0.0], "total_magnetization_normalized_formula_units": [0.0], "total_magnetization_normalized_vol": [0.0], "uncorrected_energy_per_atom": [-4.542123], "universal_anisotropy": [52.377], "volume": [65.7114], "cbm": [5.0887], "vbm": [-0.2784]}