{"includesElement": ["", "Al", "N", "Lu"], "includesElement___series_id": [7, 1, 8], "includesElement__abundance_crust": [82300.0, 19.0, 0.8], "includesElement__atomic_number": [13, 7, 71], "includesElement__atomic_radius": [125.0, 65.0, 175.0], "includesElement__atomic_radius_rahm": [239.0, 179.0, 270.0], "includesElement__atomic_volume": [10.0, 17.3, 17.8], "includesElement__atomic_weight": [26.98154, 14.007, 174.9668], "includesElement__covalent_radius_cordero": [121.0, 71.0, 187.0], "includesElement__covalent_radius_pyykko": [126.0, 71.0, 162.0], "includesElement__covalent_radius_pyykko_double": [113.0, 60.0, 131.0], "includesElement__covalent_radius_pyykko_triple": [111.0, 54.0, 131.0], "includesElement__density": [2.7, 0.001145, 9.84], "includesElement__dipole_polarizability": [57.8, 7.4, 137.0], "includesElement__dipole_polarizability_unc": [1.0, 0.2, 7.0], "includesElement__discovery_year": [1825, 1772, 1907], "includesElement__electron_affinity": [0.43283, -1.4, 0.34], "includesElement__electronegativity_allred-rochow": [0.0002204586, 0.000773656, 0.0001143118], "includesElement__electronegativity_cottrell-sutton": [0.1666667, 0.2343706, 0.1360828], "includesElement__electronegativity_ghosh": [0.150078, 0.26493, 0.22565], "includesElement__electronegativity_gordy": [0.02777778, 0.05492958, 0.01851852], "includesElement__electronegativity_mulliken": [3.209299, 6.567065, 2.882935], "includesElement__electronegativity_nagle": [0.3730192, 0.8774979, 0.4987805], "includesElement__electronegativity_pauling": [1.61, 3.04, 1.0], "includesElement__electronegativity_sanderson": [0.2360927, 0.577482, 0.6027398], "includesElement__en_ghosh": [0.150078, 0.26493, 0.22565], "includesElement__en_pauling": [1.61, 3.04, 1.0], "includesElement__evaporation_heat": [284.1, 414.0], "includesElement__fusion_heat": [10.75], "includesElement__glawe_number": [78, 88, 19], "includesElement__group_id": [13, 15], "includesElement__heat_of_formation": [330.9, 472.44, 427.6], "includesElement__is_radioactive": [false], "includesElement__lattice_constant": [4.05, 4.039, 3.51], "includesElement__mendeleev_number": [82, 93, 41], "includesElement__molar_heat_capacity": [24.2, 29.124, 26.86], "includesElement__period": [3, 2, 6], "includesElement__pettifor_number": [80, 100, 21], "includesElement__specific_heat_capacity": [0.897, 1.04, 0.154], "includesElement__vdw_radius": [184.0, 155.0, 224.0], "includesElement__vdw_radius_alvarez": [225.0, 166.0, 274.0], "includesElement__vdw_radius_mm3": [236.0, 193.0, 265.0], "includesElement__vdw_radius_uff": [449.9, 366.0, 364.0], "includesElement__abundance_sea": [0.002, 0.5, 1.5e-07], "includesElement__atomic_weight_uncertainty": [7e-07, 0.0001], "includesElement__c6_gb": [520.0, 25.7, 2020.0], "includesElement__covalent_radius_bragg": [135.0, 65.0], "includesElement__electronegativity_allen": [9.539, 18.13, 6.455], "includesElement__en_allen": [9.539, 18.13, 6.455], "includesElement__metallic_radius": [125.0], "includesElement__metallic_radius_c12": [143.0, 53.0], "includesElement__thermal_conductivity": [237.0, 0.026], "includesElement__vdw_radius_batsanov": [210.0, 160.0], "includesElement__c6": [528.0, 24.2], "includesElement__is_monoisotopic": [true], "includesElement__vdw_radius_dreiding": [439.0, 366.21], "includesElement__vdw_radius_truhlar": [184.0], "includesElement__gas_basicity": [318.7, 970.6], "includesElement__proton_affinity": [342.2, 992.0], "includesElement__vdw_radius_bondi": [155.0], "includesElement__vdw_radius_rt": [164.0], "formula": ["Al1Lu3N1"], "spacegroup": ["221"], "thermalConductivity": [10.6232], "icsd": ["608380"], "band_gap": [0.0], "density": [9.634223], "density_atomic": [19.50715], "deprecated": [false], "efermi": [4.247167], "energy_above_hull": [0.0], "energy_per_atom": [-27.15133], "formation_energy_per_atom": [-1.131227], "homogeneous_poisson": [0.197], "is_gap_direct": [false], "is_magnetic": [false], "is_metal": [true], "is_stable": [true], "nelements": [3], "nsites": [5], "num_magnetic_sites": [0], "num_unique_magnetic_sites": [0], "theoretical": [true], "total_magnetization": [6.5e-05], "total_magnetization_normalized_formula_units": [6.5e-05], "total_magnetization_normalized_vol": [6.664223e-07], "uncorrected_energy_per_atom": [-27.15133], "universal_anisotropy": [0.02], "volume": [97.53575], "equilibrium_reaction_energy_per_atom": [-0.05586364]}