{"includesElement": ["", "N", "Y"], "includesElement___series_id": [1, 8], "includesElement__abundance_crust": [19.0, 33.0], "includesElement__atomic_number": [7, 39], "includesElement__atomic_radius": [65.0, 180.0], "includesElement__atomic_radius_rahm": [179.0, 274.0], "includesElement__atomic_volume": [17.3, 19.8], "includesElement__atomic_weight": [14.007, 88.90584], "includesElement__covalent_radius_cordero": [71.0, 190.0], "includesElement__covalent_radius_pyykko": [71.0, 163.0], "includesElement__covalent_radius_pyykko_double": [60.0, 130.0], "includesElement__covalent_radius_pyykko_triple": [54.0, 124.0], "includesElement__density": [0.001145, 4.47], "includesElement__dipole_polarizability": [7.4, 162.0], "includesElement__dipole_polarizability_unc": [0.2, 12.0], "includesElement__discovery_year": [1772, 1789], "includesElement__electron_affinity": [-1.4, 0.307], "includesElement__electronegativity_allred-rochow": [0.000773656, 0.0001129135], "includesElement__electronegativity_cottrell-sutton": [0.2343706, 0.1356647], "includesElement__electronegativity_ghosh": [0.26493, 0.1216986], "includesElement__electronegativity_gordy": [0.05492958, 0.01840491], "includesElement__electronegativity_mulliken": [6.567065, 3.26213], "includesElement__electronegativity_nagle": [0.8774979, 0.2645668], "includesElement__electronegativity_pauling": [3.04, 1.22], "includesElement__electronegativity_sanderson": [0.577482, 0.3923941], "includesElement__en_ghosh": [0.26493, 0.1216986], "includesElement__en_pauling": [3.04, 1.22], "includesElement__glawe_number": [88, 21], "includesElement__group_id": [15, 3], "includesElement__heat_of_formation": [472.44, 424.7], "includesElement__is_radioactive": [false], "includesElement__lattice_constant": [4.039, 3.65], "includesElement__mendeleev_number": [93, 12], "includesElement__molar_heat_capacity": [29.124, 26.53], "includesElement__period": [2, 5], "includesElement__pettifor_number": [100, 19], "includesElement__specific_heat_capacity": [1.04, 0.298], "includesElement__vdw_radius": [155.0, 232.0], "includesElement__vdw_radius_alvarez": [166.0, 275.0], "includesElement__vdw_radius_mm3": [193.0, 271.0], "includesElement__vdw_radius_uff": [366.0, 334.5], "includesElement__abundance_sea": [0.5, 1.3e-05], "includesElement__c6_gb": [25.7, 2600.0], "includesElement__covalent_radius_bragg": [65.0], "includesElement__electronegativity_allen": [18.13, 6.631], "includesElement__en_allen": [18.13, 6.631], "includesElement__metallic_radius_c12": [53.0, 180.0], "includesElement__thermal_conductivity": [0.026], "includesElement__vdw_radius_batsanov": [160.0, 240.0], "includesElement__c6": [24.2], "includesElement__vdw_radius_dreiding": [366.21], "includesElement__gas_basicity": [318.7, 945.9], "includesElement__proton_affinity": [342.2, 967.0], "includesElement__vdw_radius_bondi": [155.0], "includesElement__vdw_radius_rt": [164.0], "includesElement__evaporation_heat": [367.0], "includesElement__fusion_heat": [11.5], "includesElement__atomic_weight_uncertainty": [2e-05], "includesElement__metallic_radius": [162.0], "includesElement__is_monoisotopic": [true], "formula": ["N2Y2"], "spacegroup": ["194"], "thermalConductivity": [18.5086], "icsd": ["185557"], "band_gap": [0.2059], "density": [5.599302], "density_atomic": [15.25997], "deprecated": [false], "efermi": [4.321016], "energy_above_hull": [0.3551251], "energy_per_atom": [-16.36567], "formation_energy_per_atom": [-1.644492], "homogeneous_poisson": [0.251], "is_gap_direct": [true], "is_magnetic": [false], "is_metal": [false], "is_stable": [false], "nelements": [2], "nsites": [4], "num_magnetic_sites": [0], "num_unique_magnetic_sites": [0], "theoretical": [true], "total_magnetization": [2.54e-05], "total_magnetization_normalized_formula_units": [1.27e-05], "total_magnetization_normalized_vol": [4.161215e-07], "uncorrected_energy_per_atom": [-8.733205], "universal_anisotropy": [1.859], "volume": [61.03986], "cbm": [4.4221], "vbm": [4.2162]}