{"includesElement": ["", "Zr", "Os"], "includesElement___series_id": [8], "includesElement__abundance_crust": [165.0, 0.0015], "includesElement__atomic_number": [40, 76], "includesElement__atomic_radius": [155.0, 130.0], "includesElement__atomic_radius_rahm": [269.0, 244.0], "includesElement__atomic_volume": [14.1, 8.43], "includesElement__atomic_weight": [91.224, 190.23], "includesElement__covalent_radius_cordero": [175.0, 144.0], "includesElement__covalent_radius_pyykko": [154.0, 129.0], "includesElement__covalent_radius_pyykko_double": [127.0, 116.0], "includesElement__covalent_radius_pyykko_triple": [121.0, 109.0], "includesElement__density": [6.52, 22.5872], "includesElement__dipole_polarizability": [112.0, 57.0], "includesElement__dipole_polarizability_unc": [13.0, 3.0], "includesElement__discovery_year": [1789, 1804], "includesElement__electron_affinity": [0.426, 1.1], "includesElement__electronegativity_allred-rochow": [0.0001328217, 0.000225347], "includesElement__electronegativity_cottrell-sutton": [0.1430194, 0.1704986], "includesElement__electronegativity_ghosh": [0.1248887, 0.2479845], "includesElement__electronegativity_gordy": [0.02045455, 0.02906977], "includesElement__electronegativity_mulliken": [3.52995, 4.769115], "includesElement__electronegativity_nagle": [0.3293169, 0.5196828], "includesElement__electronegativity_pauling": [1.33, 2.2], "includesElement__electronegativity_sanderson": [0.4744467, 1.239276], "includesElement__en_ghosh": [0.1248887, 0.2479845], "includesElement__en_pauling": [1.33, 2.2], "includesElement__evaporation_heat": [567.0, 738.0], "includesElement__fusion_heat": [19.2, 31.7], "includesElement__glawe_number": [49, 60], "includesElement__group_id": [4, 8], "includesElement__heat_of_formation": [610.0, 787.0], "includesElement__is_radioactive": [false], "includesElement__lattice_constant": [3.23, 2.74], "includesElement__mendeleev_number": [44, 61], "includesElement__molar_heat_capacity": [25.36, 24.7], "includesElement__period": [5, 6], "includesElement__pettifor_number": [49, 62], "includesElement__specific_heat_capacity": [0.278, 0.13], "includesElement__vdw_radius": [223.0, 216.0], "includesElement__vdw_radius_alvarez": [252.0, 248.0], "includesElement__vdw_radius_mm3": [254.0, 235.0], "includesElement__vdw_radius_uff": [312.4, 312.0], "includesElement__abundance_sea": [3e-05], "includesElement__atomic_weight_uncertainty": [0.002, 0.03], "includesElement__c6_gb": [1360.0, 584.0], "includesElement__electronegativity_allen": [7.808, 9.78], "includesElement__en_allen": [7.808, 9.78], "includesElement__metallic_radius": [145.0, 126.0], "includesElement__metallic_radius_c12": [160.0, 135.0], "includesElement__thermal_conductivity": [22.7], "includesElement__vdw_radius_batsanov": [230.0, 200.0], "formula": ["Os3Zr1"], "spacegroup": ["221"], "thermalConductivity": [10.646], "icsd": ["185644"], "band_gap": [0.0], "density": [17.21801], "density_atomic": [15.95908], "deprecated": [false], "efermi": [7.155302], "energy_above_hull": [0.2845717], "energy_per_atom": [-45.48158], "formation_energy_per_atom": [-0.05521359], "homogeneous_poisson": [0.33], "is_gap_direct": [false], "is_magnetic": [false], "is_metal": [true], "is_stable": [false], "nelements": [2], "nsites": [4], "num_magnetic_sites": [0], "num_unique_magnetic_sites": [0], "theoretical": [true], "total_magnetization": [0.0002596], "total_magnetization_normalized_formula_units": [0.0002596], "total_magnetization_normalized_vol": [4.066651e-06], "uncorrected_energy_per_atom": [-10.56373], "universal_anisotropy": [0.486], "volume": [63.83632]}