{"includesElement": ["", "Be", "Na", "Sb"], "includesElement___series_id": [4, 3, 5], "includesElement__abundance_crust": [2.8, 23600.0, 0.2], "includesElement__atomic_number": [4, 11, 51], "includesElement__atomic_radius": [105.0, 180.0, 145.0], "includesElement__atomic_radius_rahm": [219.0, 225.0, 246.0], "includesElement__atomic_volume": [5.0, 23.7, 18.4], "includesElement__atomic_weight": [9.012183, 22.98977, 121.76], "includesElement__covalent_radius_cordero": [96.0, 166.0, 139.0], "includesElement__covalent_radius_pyykko": [102.0, 155.0, 140.0], "includesElement__covalent_radius_pyykko_double": [90.0, 160.0, 133.0], "includesElement__covalent_radius_pyykko_triple": [85.0, 127.0], "includesElement__density": [1.85, 0.97, 6.68], "includesElement__dipole_polarizability": [37.74, 162.7, 43.0], "includesElement__dipole_polarizability_unc": [0.03, 0.5, 2.0], "includesElement__discovery_year": [1798, 1807], "includesElement__electron_affinity": [-2.4, 0.547926, 1.046], "includesElement__electronegativity_allred-rochow": [0.0001874279, 9.157128e-05, 0.0003214286], "includesElement__electronegativity_cottrell-sutton": [0.1382666, 0.1191367, 0.212132], "includesElement__electronegativity_ghosh": [0.144986, 0.093214, 0.1918774], "includesElement__electronegativity_gordy": [0.01911765, 0.01419355, 0.045], "includesElement__electronegativity_mulliken": [3.461349, 2.843501, 4.827195], "includesElement__electronegativity_nagle": [0.3756148, 0.1831769, 0.4880907], "includesElement__electronegativity_pauling": [1.57, 0.93, 2.05], "includesElement__electronegativity_sanderson": [0.1268473, 0.09459764, 0.7762722], "includesElement__en_ghosh": [0.144986, 0.093214, 0.1918774], "includesElement__en_pauling": [1.57, 0.93, 2.05], "includesElement__evaporation_heat": [309.0, 97.9, 195.2], "includesElement__fusion_heat": [12.21, 2.64, 20.08], "includesElement__glawe_number": [77, 11, 91], "includesElement__group_id": [2, 1, 15], "includesElement__heat_of_formation": [324.0, 107.5, 264.4], "includesElement__is_radioactive": [false], "includesElement__lattice_constant": [2.29, 4.23, 4.51], "includesElement__mendeleev_number": [75, 2, 96], "includesElement__molar_heat_capacity": [16.443, 28.23, 25.23], "includesElement__period": [2, 3, 5], "includesElement__pettifor_number": [77, 11, 88], "includesElement__specific_heat_capacity": [1.825, 1.228, 0.207], "includesElement__vdw_radius": [153.0, 227.0, 206.0], "includesElement__vdw_radius_alvarez": [198.0, 250.0, 247.0], "includesElement__vdw_radius_mm3": [223.0, 270.0, 252.0], "includesElement__vdw_radius_uff": [274.5, 298.3, 442.0], "includesElement__abundance_sea": [5.6e-06, 10800.0, 0.00024], "includesElement__atomic_weight_uncertainty": [5e-07, 2e-08, 0.001], "includesElement__c6_gb": [214.0, 1570.0, 504.0], "includesElement__covalent_radius_bragg": [115.0, 177.0, 140.0], "includesElement__electronegativity_allen": [9.323, 5.14, 11.74], "includesElement__en_allen": [9.323, 5.14, 11.74], "includesElement__metallic_radius": [89.0, 157.0, 139.0], "includesElement__metallic_radius_c12": [112.0, 190.0, 166.0], "includesElement__thermal_conductivity": [201.0, 142.0, 24.43], "includesElement__vdw_radius_batsanov": [190.0, 240.0, 220.0], "includesElement__c6": [227.0, 1518.0, 492.0], "includesElement__is_monoisotopic": [true], "includesElement__vdw_radius_truhlar": [153.0, 206.0], "includesElement__vdw_radius_bondi": [227.0], "includesElement__vdw_radius_dreiding": [435.0], "formula": ["Be2Na2Sb2"], "spacegroup": ["194"], "thermalConductivity": [3.97761], "icsd": ["100092"], "band_gap": [0.8866], "density": [3.615104], "density_atomic": [23.54268], "deprecated": [false], "efermi": [3.370395], "energy_above_hull": [0.04839614], "energy_per_atom": [-3.294502], "formation_energy_per_atom": [-0.224457], "homogeneous_poisson": [0.218], "is_gap_direct": [false], "is_magnetic": [false], "is_metal": [false], "is_stable": [false], "nelements": [3], "nsites": [6], "num_magnetic_sites": [0], "num_unique_magnetic_sites": [0], "theoretical": [false], "total_magnetization": [6.7e-05], "total_magnetization_normalized_formula_units": [3.35e-05], "total_magnetization_normalized_vol": [4.743159e-07], "uncorrected_energy_per_atom": [-3.230502], "universal_anisotropy": [3.117], "volume": [141.2561], "cbm": [4.1227], "vbm": [3.2361]}