{"includesElement": ["", "Cd", "Zr"], "includesElement___series_id": [8], "includesElement__abundance_crust": [0.15, 165.0], "includesElement__atomic_number": [48, 40], "includesElement__atomic_radius": [155.0], "includesElement__atomic_radius_rahm": [238.0, 269.0], "includesElement__atomic_volume": [13.1, 14.1], "includesElement__atomic_weight": [112.414, 91.224], "includesElement__covalent_radius_cordero": [144.0, 175.0], "includesElement__covalent_radius_pyykko": [136.0, 154.0], "includesElement__covalent_radius_pyykko_double": [144.0, 127.0], "includesElement__density": [8.69, 6.52], "includesElement__dipole_polarizability": [46.0, 112.0], "includesElement__dipole_polarizability_unc": [2.0, 13.0], "includesElement__discovery_year": [1817, 1789], "includesElement__electronegativity_allred-rochow": [0.000235186, 0.0001328217], "includesElement__electronegativity_cottrell-sutton": [0.1788443, 0.1430194], "includesElement__electronegativity_ghosh": [0.1504066, 0.1248887], "includesElement__electronegativity_gordy": [0.03198529, 0.02045455], "includesElement__electronegativity_mulliken": [4.496911, 3.52995], "includesElement__electronegativity_nagle": [0.6389612, 0.3293169], "includesElement__electronegativity_pauling": [1.69, 1.33], "includesElement__electronegativity_sanderson": [0.801562, 0.4744467], "includesElement__en_ghosh": [0.1504066, 0.1248887], "includesElement__en_pauling": [1.69, 1.33], "includesElement__evaporation_heat": [59.1, 567.0], "includesElement__fusion_heat": [6.11, 19.2], "includesElement__glawe_number": [75, 49], "includesElement__group_id": [12, 4], "includesElement__heat_of_formation": [111.8, 610.0], "includesElement__is_radioactive": [false], "includesElement__lattice_constant": [2.98, 3.23], "includesElement__mendeleev_number": [78, 44], "includesElement__molar_heat_capacity": [26.02, 25.36], "includesElement__period": [5], "includesElement__pettifor_number": [75, 49], "includesElement__specific_heat_capacity": [0.232, 0.278], "includesElement__vdw_radius": [218.0, 223.0], "includesElement__vdw_radius_alvarez": [249.0, 252.0], "includesElement__vdw_radius_mm3": [250.0, 254.0], "includesElement__vdw_radius_uff": [284.8, 312.4], "includesElement__abundance_sea": [0.00011, 3e-05], "includesElement__atomic_weight_uncertainty": [0.004, 0.002], "includesElement__c6_gb": [405.0, 1360.0], "includesElement__covalent_radius_bragg": [160.0], "includesElement__electronegativity_allen": [8.995, 7.808], "includesElement__en_allen": [8.995, 7.808], "includesElement__metallic_radius": [138.0, 145.0], "includesElement__metallic_radius_c12": [151.0, 160.0], "includesElement__thermal_conductivity": [96.9, 22.7], "includesElement__vdw_radius_batsanov": [220.0, 230.0], "includesElement__covalent_radius_pyykko_triple": [121.0], "includesElement__electron_affinity": [0.426], "formula": ["Cd1Zr2"], "spacegroup": ["139"], "thermalConductivity": [7.37794], "icsd": ["620613"], "band_gap": [0.0], "density": [7.323383], "density_atomic": [22.28591], "deprecated": [false], "efermi": [3.76164], "energy_above_hull": [0.0], "energy_per_atom": [-22.00424], "formation_energy_per_atom": [-0.1360465], "homogeneous_poisson": [0.32], "is_gap_direct": [false], "is_magnetic": [false], "is_metal": [true], "is_stable": [true], "nelements": [2], "nsites": [3], "num_magnetic_sites": [0], "num_unique_magnetic_sites": [0], "theoretical": [false], "total_magnetization": [4.3e-06], "total_magnetization_normalized_formula_units": [4.3e-06], "total_magnetization_normalized_vol": [6.431566e-08], "uncorrected_energy_per_atom": [-22.00424], "universal_anisotropy": [1.691], "volume": [66.85774], "equilibrium_reaction_energy_per_atom": [-0.04224119]}