{"includesElement": ["", "F", "Ti"], "includesElement___series_id": [6, 8], "includesElement__abundance_crust": [585.0, 5650.0], "includesElement__atomic_number": [9, 22], "includesElement__atomic_radius": [50.0, 140.0], "includesElement__atomic_radius_rahm": [163.0, 257.0], "includesElement__atomic_volume": [17.1, 10.6], "includesElement__atomic_weight": [18.9984, 47.867], "includesElement__covalent_radius_cordero": [57.0, 160.0], "includesElement__covalent_radius_pyykko": [64.0, 136.0], "includesElement__covalent_radius_pyykko_double": [59.0, 117.0], "includesElement__covalent_radius_pyykko_triple": [53.0, 108.0], "includesElement__density": [0.001553, 4.506], "includesElement__dipole_polarizability": [3.74, 100.0], "includesElement__dipole_polarizability_unc": [0.08, 10.0], "includesElement__discovery_year": [1886, 1791], "includesElement__electron_affinity": [3.40119, 0.079], "includesElement__electronegativity_allred-rochow": [0.001269531, 0.0001703071], "includesElement__electronegativity_cottrell-sutton": [0.2850439, 0.1521899], "includesElement__electronegativity_ghosh": [0.344443, 0.1233637], "includesElement__electronegativity_gordy": [0.08125, 0.02316176], "includesElement__electronegativity_mulliken": [10.412, 3.45356], "includesElement__electronegativity_nagle": [1.232373, 0.3419952], "includesElement__electronegativity_pauling": [3.98, 1.54], "includesElement__electronegativity_sanderson": [1.017681, 0.4055462], "includesElement__en_ghosh": [0.344443, 0.1233637], "includesElement__en_pauling": [3.98, 1.54], "includesElement__evaporation_heat": [6.54, 422.6], "includesElement__fusion_heat": [0.51, 18.8], "includesElement__glawe_number": [102, 51], "includesElement__group_id": [17, 4], "includesElement__heat_of_formation": [79.335, 473.0], "includesElement__is_radioactive": [false], "includesElement__mendeleev_number": [106, 43], "includesElement__molar_heat_capacity": [31.304, 25.06], "includesElement__period": [2, 4], "includesElement__pettifor_number": [102, 51], "includesElement__specific_heat_capacity": [0.824, 0.523], "includesElement__vdw_radius": [147.0, 211.0], "includesElement__vdw_radius_alvarez": [146.0, 246.0], "includesElement__vdw_radius_mm3": [171.0, 239.0], "includesElement__vdw_radius_uff": [336.4, 317.5], "includesElement__abundance_sea": [1.3, 0.001], "includesElement__atomic_weight_uncertainty": [6e-09, 0.001], "includesElement__c6_gb": [10.2, 1200.0], "includesElement__covalent_radius_bragg": [67.0, 140.0], "includesElement__electronegativity_allen": [24.8, 8.17], "includesElement__en_allen": [24.8, 8.17], "includesElement__thermal_conductivity": [0.028, 21.9], "includesElement__vdw_radius_batsanov": [150.0, 215.0], "includesElement__c6": [9.52, 1044.0], "includesElement__is_monoisotopic": [true], "includesElement__vdw_radius_dreiding": [347.2], "includesElement__gas_basicity": [315.1, 853.7], "includesElement__proton_affinity": [340.1, 876.0], "includesElement__vdw_radius_bondi": [147.0], "includesElement__vdw_radius_rt": [146.0], "includesElement__lattice_constant": [2.95], "includesElement__metallic_radius": [132.0], "includesElement__metallic_radius_c12": [147.0], "formula": ["F2Ti1"], "spacegroup": ["225"], "thermalConductivity": [7.44727], "icsd": ["65410"], "band_gap": [0.4364], "density": [4.072182], "density_atomic": [11.67107], "deprecated": [false], "efermi": [6.385517], "energy_above_hull": [0.2484684], "energy_per_atom": [-6.921081], "formation_energy_per_atom": [-3.014931], "homogeneous_poisson": [0.286], "is_gap_direct": [false], "is_magnetic": [true], "is_metal": [false], "is_stable": [false], "nelements": [2], "nsites": [3], "num_magnetic_sites": [1], "num_unique_magnetic_sites": [1], "theoretical": [false], "total_magnetization": [2.000016], "total_magnetization_normalized_formula_units": [2.000016], "total_magnetization_normalized_vol": [0.05712174], "uncorrected_energy_per_atom": [-6.613081], "universal_anisotropy": [0.165], "volume": [35.01322], "cbm": [6.4291], "vbm": [5.9927]}