{"includesElement": ["Sb", "Pd", "Tm"], "includesElement___series_id": [5, 8, 9], "includesElement__abundance_crust": [0.2, 0.015, 0.52], "includesElement__atomic_number": [51, 46, 69], "includesElement__atomic_radius": [145.0, 140.0, 175.0], "includesElement__atomic_radius_rahm": [246.0, 215.0, 271.0], "includesElement__atomic_volume": [18.4, 8.9, 18.1], "includesElement__atomic_weight": [121.76, 106.42, 168.9342], "includesElement__covalent_radius_cordero": [139.0, 190.0], "includesElement__covalent_radius_pyykko": [140.0, 120.0, 164.0], "includesElement__covalent_radius_pyykko_double": [133.0, 117.0, 131.0], "includesElement__covalent_radius_pyykko_triple": [127.0, 112.0], "includesElement__density": [6.68, 12.0, 9.321], "includesElement__dipole_polarizability": [43.0, 26.14, 144.0], "includesElement__dipole_polarizability_unc": [2.0, 0.1, 15.0], "includesElement__electron_affinity": [1.046, 0.562, 1.029], "includesElement__electronegativity_allred-rochow": [0.0003214286, 0.0004756944, 0.0001059637], "includesElement__electronegativity_cottrell-sutton": [0.212132, 0.2389212, 0.1318258], "includesElement__electronegativity_ghosh": [0.1918774, 0.1440276, 0.2167244], "includesElement__electronegativity_gordy": [0.045, 0.05708333, 0.01737805], "includesElement__electronegativity_mulliken": [4.827195, 4.44943, 3.606655], "includesElement__electronegativity_nagle": [0.4880907, 0.7259357, 0.470518], "includesElement__electronegativity_pauling": [2.05, 2.2, 1.25], "includesElement__electronegativity_sanderson": [0.7762722, 1.124263, 0.5722439], "includesElement__en_ghosh": [0.1918774, 0.1440276, 0.2167244], "includesElement__en_pauling": [2.05, 2.2, 1.25], "includesElement__evaporation_heat": [195.2, 372.4, 232.0], "includesElement__fusion_heat": [20.08, 17.24], "includesElement__glawe_number": [91, 65, 20], "includesElement__group_id": [15, 10], "includesElement__heat_of_formation": [264.4, 376.6, 232.2], "includesElement__is_radioactive": [false], "includesElement__lattice_constant": [4.51, 3.89, 3.54], "includesElement__mendeleev_number": [96, 68, 37], "includesElement__molar_heat_capacity": [25.23, 25.98, 27.03], "includesElement__period": [5, 6], "includesElement__pettifor_number": [88, 69, 22], "includesElement__specific_heat_capacity": [0.207, 0.246, 0.16], "includesElement__vdw_radius": [206.0, 210.0, 227.0], "includesElement__vdw_radius_alvarez": [247.0, 215.0, 279.0], "includesElement__vdw_radius_mm3": [252.0, 237.0, 267.0], "includesElement__vdw_radius_uff": [442.0, 289.9, 337.4], "includesElement__abundance_sea": [0.00024, 1.7e-07], "includesElement__atomic_weight_uncertainty": [0.001, 0.01, 2e-05], "includesElement__c6_gb": [504.0, 628.0, 2020.0], "includesElement__covalent_radius_bragg": [140.0], "includesElement__electronegativity_allen": [11.74, 9.402], "includesElement__en_allen": [11.74, 9.402], "includesElement__metallic_radius": [139.0, 128.0], "includesElement__metallic_radius_c12": [166.0, 137.0], "includesElement__thermal_conductivity": [24.43, 71.8], "includesElement__vdw_radius_batsanov": [220.0, 205.0], "includesElement__c6": [492.0], "includesElement__vdw_radius_dreiding": [435.0], "includesElement__vdw_radius_truhlar": [206.0], "includesElement__discovery_year": [1803, 1879], "includesElement__gas_basicity": [673.4], "includesElement__proton_affinity": [696.0], "includesElement__is_monoisotopic": [true], "formula": ["TmSbPd"], "mp_id": ["1018118"], "thermalConductivity": [7.66], "band_gap": [0.3559], "density": [8.798936], "density_atomic": [24.98119], "deprecated": [false], "efermi": [5.021521], "energy_above_hull": [0.271517], "energy_per_atom": [-28.69383], "formation_energy_per_atom": [-0.7645583], "is_gap_direct": [false], "is_magnetic": [false], "is_metal": [false], "is_stable": [false], "nelements": [3], "nsites": [3], "num_magnetic_sites": [0], "num_unique_magnetic_sites": [0], "theoretical": [false], "total_magnetization": [0.0], "total_magnetization_normalized_formula_units": [0.0], "total_magnetization_normalized_vol": [0.0], "uncorrected_energy_per_atom": [-5.299886], "volume": [74.94357], "cbm": [5.3434], "e_electronic": [15.26109], "e_ionic": [7.206051], "e_total": [22.46714], "n": [3.906545], "vbm": [4.9875], "e_ij_max": [1.24887]}