{"includesElement": ["", "Pt", "W"], "includesElement___series_id": [8], "includesElement__abundance_crust": [0.005, 1.25], "includesElement__atomic_number": [78, 74], "includesElement__atomic_radius": [135.0], "includesElement__atomic_radius_rahm": [230.0, 253.0], "includesElement__atomic_volume": [9.1, 9.53], "includesElement__atomic_weight": [195.084, 183.84], "includesElement__covalent_radius_cordero": [136.0, 162.0], "includesElement__covalent_radius_pyykko": [123.0, 137.0], "includesElement__covalent_radius_pyykko_double": [112.0, 120.0], "includesElement__covalent_radius_pyykko_triple": [110.0, 115.0], "includesElement__density": [21.5, 19.3], "includesElement__dipole_polarizability": [48.0, 68.0], "includesElement__dipole_polarizability_unc": [4.0, 15.0], "includesElement__discovery_year": [1735, 1783], "includesElement__electron_affinity": [2.128, 0.81626], "includesElement__electronegativity_allred-rochow": [0.0002346487, 0.0001838137], "includesElement__electronegativity_cottrell-sutton": [0.1698876, 0.1586899], "includesElement__electronegativity_ghosh": [0.25691, 0.2390504], "includesElement__electronegativity_gordy": [0.02886179, 0.02518248], "includesElement__electronegativity_mulliken": [5.543415, 4.340145], "includesElement__electronegativity_nagle": [0.5928156, 0.4451921], "includesElement__electronegativity_pauling": [2.2, 1.7], "includesElement__electronegativity_sanderson": [1.45101, 1.019283], "includesElement__en_ghosh": [0.25691, 0.2390504], "includesElement__en_pauling": [2.2, 1.7], "includesElement__evaporation_heat": [470.0, 824.0], "includesElement__fusion_heat": [21.76, 35.0], "includesElement__glawe_number": [64, 57], "includesElement__group_id": [10, 6], "includesElement__heat_of_formation": [565.7, 851.0], "includesElement__is_radioactive": [false], "includesElement__lattice_constant": [3.92, 3.16], "includesElement__mendeleev_number": [69, 53], "includesElement__molar_heat_capacity": [25.86, 24.27], "includesElement__period": [6], "includesElement__pettifor_number": [68, 56], "includesElement__specific_heat_capacity": [0.133, 0.132], "includesElement__vdw_radius": [213.0, 218.0], "includesElement__vdw_radius_alvarez": [229.0, 257.0], "includesElement__vdw_radius_mm3": [239.0], "includesElement__vdw_radius_uff": [275.4, 309.6], "includesElement__atomic_weight_uncertainty": [0.009, 0.01], "includesElement__c6_gb": [470.0, 757.0], "includesElement__electronegativity_allen": [10.16, 8.67], "includesElement__en_allen": [10.16, 8.67], "includesElement__metallic_radius": [130.0], "includesElement__metallic_radius_c12": [139.0], "includesElement__thermal_conductivity": [71.6, 173.0], "includesElement__vdw_radius_batsanov": [205.0, 210.0], "includesElement__abundance_sea": [0.0001], "formula": ["Pt2W1"], "spacegroup": ["71"], "thermalConductivity": [14.6489], "icsd": ["649841"], "band_gap": [0.0], "density": [20.87813], "density_atomic": [15.21788], "deprecated": [false], "efermi": [8.005624], "energy_above_hull": [0.0], "energy_per_atom": [-51.79725], "formation_energy_per_atom": [-0.3495039], "is_gap_direct": [false], "is_magnetic": [false], "is_metal": [true], "is_stable": [true], "nelements": [2], "nsites": [3], "num_magnetic_sites": [0], "num_unique_magnetic_sites": [0], "theoretical": [false], "total_magnetization": [4e-07], "total_magnetization_normalized_formula_units": [4e-07], "total_magnetization_normalized_vol": [8.761621e-09], "uncorrected_energy_per_atom": [-51.79725], "volume": [45.65365], "equilibrium_reaction_energy_per_atom": [-0.3495039]}