{"includesElement": ["", "Al", "N", "Tb"], "includesElement___series_id": [7, 1, 9], "includesElement__abundance_crust": [82300.0, 19.0, 1.2], "includesElement__atomic_number": [13, 7, 65], "includesElement__atomic_radius": [125.0, 65.0, 175.0], "includesElement__atomic_radius_rahm": [239.0, 179.0, 276.0], "includesElement__atomic_volume": [10.0, 17.3, 19.2], "includesElement__atomic_weight": [26.98154, 14.007, 158.9254], "includesElement__covalent_radius_cordero": [121.0, 71.0, 194.0], "includesElement__covalent_radius_pyykko": [126.0, 71.0, 168.0], "includesElement__covalent_radius_pyykko_double": [113.0, 60.0, 135.0], "includesElement__covalent_radius_pyykko_triple": [111.0, 54.0], "includesElement__density": [2.7, 0.001145, 8.23], "includesElement__dipole_polarizability": [57.8, 7.4, 170.0], "includesElement__dipole_polarizability_unc": [1.0, 0.2, 20.0], "includesElement__discovery_year": [1825, 1772, 1843], "includesElement__electron_affinity": [0.43283, -1.4, 1.165], "includesElement__electronegativity_allred-rochow": [0.0002204586, 0.000773656, 0.0001009779], "includesElement__electronegativity_cottrell-sutton": [0.1666667, 0.2343706, 0.130247], "includesElement__electronegativity_ghosh": [0.150078, 0.26493, 0.198863], "includesElement__electronegativity_gordy": [0.02777778, 0.05492958, 0.01696429], "includesElement__electronegativity_mulliken": [3.209299, 6.567065, 3.5144], "includesElement__electronegativity_nagle": [0.3730192, 0.8774979, 0.4014652], "includesElement__electronegativity_pauling": [1.61, 3.04], "includesElement__electronegativity_sanderson": [0.2360927, 0.577482, 0.5163695], "includesElement__en_ghosh": [0.150078, 0.26493, 0.198863], "includesElement__en_pauling": [1.61, 3.04], "includesElement__evaporation_heat": [284.1, 389.0], "includesElement__fusion_heat": [10.75], "includesElement__glawe_number": [78, 88, 25], "includesElement__group_id": [13, 15], "includesElement__heat_of_formation": [330.9, 472.44, 388.7], "includesElement__is_radioactive": [false], "includesElement__lattice_constant": [4.05, 4.039, 3.6], "includesElement__mendeleev_number": [82, 93, 29], "includesElement__molar_heat_capacity": [24.2, 29.124, 28.91], "includesElement__period": [3, 2, 6], "includesElement__pettifor_number": [80, 100, 26], "includesElement__specific_heat_capacity": [0.897, 1.04, 0.182], "includesElement__vdw_radius": [184.0, 155.0, 233.0], "includesElement__vdw_radius_alvarez": [225.0, 166.0, 279.0], "includesElement__vdw_radius_mm3": [236.0, 193.0, 270.0], "includesElement__vdw_radius_uff": [449.9, 366.0, 345.1], "includesElement__abundance_sea": [0.002, 0.5, 1.4e-07], "includesElement__atomic_weight_uncertainty": [7e-07, 2e-05], "includesElement__c6_gb": [520.0, 25.7, 2590.0], "includesElement__covalent_radius_bragg": [135.0, 65.0], "includesElement__electronegativity_allen": [9.539, 18.13], "includesElement__en_allen": [9.539, 18.13], "includesElement__metallic_radius": [125.0], "includesElement__metallic_radius_c12": [143.0, 53.0], "includesElement__thermal_conductivity": [237.0, 0.026, 11.1], "includesElement__vdw_radius_batsanov": [210.0, 160.0], "includesElement__c6": [528.0, 24.2], "includesElement__is_monoisotopic": [true], "includesElement__vdw_radius_dreiding": [439.0, 366.21], "includesElement__vdw_radius_truhlar": [184.0], "includesElement__gas_basicity": [318.7], "includesElement__proton_affinity": [342.2], "includesElement__vdw_radius_bondi": [155.0], "includesElement__vdw_radius_rt": [164.0], "formula": ["Al1N1Tb3"], "spacegroup": ["221"], "thermalConductivity": [10.6901], "icsd": ["608634"], "band_gap": [0.0], "density": [7.857898], "density_atomic": [21.88289], "deprecated": [false], "efermi": [4.107263], "energy_above_hull": [0.0], "energy_per_atom": [-22.98158], "formation_energy_per_atom": [-1.073548], "is_gap_direct": [false], "is_magnetic": [false], "is_metal": [true], "is_stable": [true], "nelements": [3], "nsites": [5], "num_magnetic_sites": [0], "num_unique_magnetic_sites": [0], "theoretical": [true], "total_magnetization": [2.02e-05], "total_magnetization_normalized_formula_units": [2.02e-05], "total_magnetization_normalized_vol": [1.846191e-07], "uncorrected_energy_per_atom": [-22.98158], "volume": [109.4145], "equilibrium_reaction_energy_per_atom": [-0.07674298]}