{"includesElement": ["", "Os", "C"], "includesElement___series_id": [8, 1], "includesElement__abundance_crust": [0.0015, 200.0], "includesElement__atomic_number": [76, 6], "includesElement__atomic_radius": [130.0, 70.0], "includesElement__atomic_radius_rahm": [244.0, 190.0], "includesElement__atomic_volume": [8.43, 5.3], "includesElement__atomic_weight": [190.23, 12.011], "includesElement__covalent_radius_cordero": [144.0, 73.0], "includesElement__covalent_radius_pyykko": [129.0, 75.0], "includesElement__covalent_radius_pyykko_double": [116.0, 67.0], "includesElement__covalent_radius_pyykko_triple": [109.0, 60.0], "includesElement__density": [22.5872, 2.2], "includesElement__dipole_polarizability": [57.0, 11.3], "includesElement__dipole_polarizability_unc": [3.0, 0.2], "includesElement__discovery_year": [1804], "includesElement__electron_affinity": [1.1, 1.262119], "includesElement__electronegativity_allred-rochow": [0.000225347, 0.0005777778], "includesElement__electronegativity_cottrell-sutton": [0.1704986, 0.2081666], "includesElement__electronegativity_ghosh": [0.2479845, 0.224776], "includesElement__electronegativity_gordy": [0.02906977, 0.04333333], "includesElement__electronegativity_mulliken": [4.769115, 6.261208], "includesElement__electronegativity_nagle": [0.5196828, 0.7073926], "includesElement__electronegativity_pauling": [2.2, 2.55], "includesElement__electronegativity_sanderson": [1.239276, 0.427525], "includesElement__en_ghosh": [0.2479845, 0.224776], "includesElement__en_pauling": [2.2, 2.55], "includesElement__evaporation_heat": [738.0], "includesElement__fusion_heat": [31.7], "includesElement__glawe_number": [60, 87], "includesElement__group_id": [8, 14], "includesElement__heat_of_formation": [787.0, 716.87], "includesElement__is_radioactive": [false], "includesElement__lattice_constant": [2.74, 3.57], "includesElement__mendeleev_number": [61, 87], "includesElement__molar_heat_capacity": [24.7, 8.517], "includesElement__period": [6, 2], "includesElement__pettifor_number": [62, 95], "includesElement__specific_heat_capacity": [0.13, 0.709], "includesElement__vdw_radius": [216.0, 170.0], "includesElement__vdw_radius_alvarez": [248.0, 177.0], "includesElement__vdw_radius_mm3": [235.0, 204.0], "includesElement__vdw_radius_uff": [312.0, 385.1], "includesElement__atomic_weight_uncertainty": [0.03], "includesElement__c6_gb": [584.0, 47.9], "includesElement__electronegativity_allen": [9.78, 15.05], "includesElement__en_allen": [9.78, 15.05], "includesElement__metallic_radius": [126.0], "includesElement__metallic_radius_c12": [135.0, 86.0], "includesElement__vdw_radius_batsanov": [200.0, 170.0], "includesElement__abundance_sea": [28.0], "includesElement__covalent_radius_bragg": [77.0], "includesElement__thermal_conductivity": [1.59], "includesElement__c6": [46.6], "includesElement__vdw_radius_dreiding": [389.83], "includesElement__vdw_radius_bondi": [170.0], "includesElement__vdw_radius_rt": [177.0], "formula": ["C4Os2"], "spacegroup": ["194"], "thermalConductivity": [26.3381], "icsd": ["168280"], "band_gap": [0.0464], "density": [12.41195], "density_atomic": [9.554574], "deprecated": [false], "efermi": [8.117945], "energy_above_hull": [0.5797571], "energy_per_atom": [-9.315142], "formation_energy_per_atom": [0.5797571], "homogeneous_poisson": [0.26], "is_gap_direct": [false], "is_magnetic": [false], "is_metal": [false], "is_stable": [false], "nelements": [2], "nsites": [6], "num_magnetic_sites": [0], "num_unique_magnetic_sites": [0], "theoretical": [true], "total_magnetization": [0.0021889], "total_magnetization_normalized_formula_units": [0.00109445], "total_magnetization_normalized_vol": [3.818241e-05], "uncorrected_energy_per_atom": [-9.315142], "universal_anisotropy": [0.689], "volume": [57.32745], "cbm": [8.1409], "vbm": [8.0945]}