{"includesElement": ["", "Si", "V", "Hf"], "includesElement___series_id": [5, 8], "includesElement__abundance_crust": [282000.0, 120.0, 3.0], "includesElement__atomic_number": [14, 23, 72], "includesElement__atomic_radius": [110.0, 135.0, 155.0], "includesElement__atomic_radius_rahm": [232.0, 252.0, 264.0], "includesElement__atomic_volume": [12.1, 8.35, 13.6], "includesElement__atomic_weight": [28.085, 50.9415, 178.49], "includesElement__covalent_radius_cordero": [111.0, 153.0, 175.0], "includesElement__covalent_radius_pyykko": [116.0, 134.0, 152.0], "includesElement__covalent_radius_pyykko_double": [107.0, 112.0, 128.0], "includesElement__covalent_radius_pyykko_triple": [102.0, 106.0, 122.0], "includesElement__density": [2.3296, 6.0, 13.3], "includesElement__dipole_polarizability": [37.3, 87.0, 103.0], "includesElement__dipole_polarizability_unc": [0.7, 10.0, 6.0], "includesElement__discovery_year": [1824, 1830, 1923], "includesElement__electron_affinity": [1.389521, 0.525, 0.014], "includesElement__electronegativity_allred-rochow": [0.0003084126, 0.0001837826, 0.00013634], "includesElement__electronegativity_cottrell-sutton": [0.1891451, 0.1569295, 0.1439572], "includesElement__electronegativity_ghosh": [0.178503, 0.1273344, 0.229987], "includesElement__electronegativity_gordy": [0.03577586, 0.02462687, 0.02072368], "includesElement__electronegativity_mulliken": [4.770602, 3.635594, 3.419535], "includesElement__electronegativity_nagle": [0.4750986, 0.3859078, 0.3386421], "includesElement__electronegativity_pauling": [1.9, 1.63, 1.3], "includesElement__electronegativity_sanderson": [0.3468158, 0.4388898, 0.7352125], "includesElement__en_ghosh": [0.178503, 0.1273344, 0.229987], "includesElement__en_pauling": [1.9, 1.63, 1.3], "includesElement__evaporation_heat": [383.0, 460.0, 575.0], "includesElement__fusion_heat": [50.6, 17.5, 25.1], "includesElement__glawe_number": [85, 54, 50], "includesElement__group_id": [14, 5, 4], "includesElement__heat_of_formation": [450.0, 515.5, 618.4], "includesElement__is_radioactive": [false], "includesElement__lattice_constant": [5.43, 3.02, 3.2], "includesElement__mendeleev_number": [88, 47, 45], "includesElement__molar_heat_capacity": [19.99, 24.89, 25.73], "includesElement__period": [3, 4, 6], "includesElement__pettifor_number": [85, 54, 50], "includesElement__specific_heat_capacity": [0.712, 0.489, 0.144], "includesElement__vdw_radius": [210.0, 207.0, 223.0], "includesElement__vdw_radius_alvarez": [219.0, 242.0, 263.0], "includesElement__vdw_radius_mm3": [229.0, 253.0], "includesElement__vdw_radius_uff": [429.5, 314.4, 314.1], "includesElement__abundance_sea": [2.2, 0.0025, 7e-06], "includesElement__c6_gb": [308.0, 955.0, 1040.0], "includesElement__covalent_radius_bragg": [117.0], "includesElement__electronegativity_allen": [11.33, 9.063, 6.83], "includesElement__en_allen": [11.33, 9.063, 6.83], "includesElement__metallic_radius": [117.0, 122.0, 144.0], "includesElement__metallic_radius_c12": [138.0, 134.0, 159.0], "includesElement__thermal_conductivity": [149.0, 30.7, 23.0], "includesElement__vdw_radius_batsanov": [210.0, 205.0, 225.0], "includesElement__c6": [305.0, 832.0], "includesElement__vdw_radius_dreiding": [427.0], "includesElement__gas_basicity": [814.1, 836.8], "includesElement__proton_affinity": [837.0, 859.4], "includesElement__vdw_radius_bondi": [210.0], "includesElement__atomic_weight_uncertainty": [0.0001, 0.02], "formula": ["Hf2Si2V2"], "spacegroup": ["129"], "thermalConductivity": [10.7395], "icsd": ["638931"], "band_gap": [0.0], "density": [9.004541], "density_atomic": [15.82968], "deprecated": [false], "efermi": [6.632877], "energy_above_hull": [0.0], "energy_per_atom": [-23.45], "formation_energy_per_atom": [-0.7784115], "homogeneous_poisson": [0.334], "is_gap_direct": [false], "is_magnetic": [false], "is_metal": [true], "is_stable": [true], "nelements": [3], "nsites": [6], "num_magnetic_sites": [0], "num_unique_magnetic_sites": [0], "theoretical": [false], "total_magnetization": [0.0003959], "total_magnetization_normalized_formula_units": [0.00019795], "total_magnetization_normalized_vol": [4.16833e-06], "uncorrected_energy_per_atom": [-23.45], "universal_anisotropy": [18.441], "volume": [94.97809], "equilibrium_reaction_energy_per_atom": [-0.088331]}