{"includesElement": ["", "N", "Tc"], "includesElement___series_id": [1, 8], "includesElement__abundance_crust": [19.0], "includesElement__atomic_number": [7, 43], "includesElement__atomic_radius": [65.0, 135.0], "includesElement__atomic_radius_rahm": [179.0, 252.0], "includesElement__atomic_volume": [17.3, 8.5], "includesElement__atomic_weight": [14.007, 97.90721], "includesElement__covalent_radius_cordero": [71.0, 147.0], "includesElement__covalent_radius_pyykko": [71.0, 128.0], "includesElement__covalent_radius_pyykko_double": [60.0, 120.0], "includesElement__covalent_radius_pyykko_triple": [54.0, 110.0], "includesElement__density": [0.001145, 11.0], "includesElement__dipole_polarizability": [7.4, 79.0], "includesElement__dipole_polarizability_unc": [0.2, 10.0], "includesElement__discovery_year": [1772, 1937], "includesElement__electron_affinity": [-1.4, 0.55], "includesElement__electronegativity_allred-rochow": [0.000773656, 0.0002197266], "includesElement__electronegativity_cottrell-sutton": [0.2343706, 0.1677051], "includesElement__electronegativity_ghosh": [0.26493, 0.1344592], "includesElement__electronegativity_gordy": [0.05492958, 0.028125], "includesElement__electronegativity_mulliken": [6.567065, 3.83469], "includesElement__electronegativity_nagle": [0.8774979, 0.4458174], "includesElement__electronegativity_pauling": [3.04, 2.1], "includesElement__electronegativity_sanderson": [0.577482, 0.8753613], "includesElement__en_ghosh": [0.26493, 0.1344592], "includesElement__en_pauling": [3.04, 2.1], "includesElement__glawe_number": [88, 59], "includesElement__group_id": [15, 7], "includesElement__heat_of_formation": [472.44, 678.0], "includesElement__is_radioactive": [false, true], "includesElement__lattice_constant": [4.039, 2.74], "includesElement__mendeleev_number": [93, 56], "includesElement__molar_heat_capacity": [29.124], "includesElement__period": [2, 5], "includesElement__pettifor_number": [100, 58], "includesElement__specific_heat_capacity": [1.04], "includesElement__vdw_radius": [155.0, 216.0], "includesElement__vdw_radius_alvarez": [166.0, 244.0], "includesElement__vdw_radius_mm3": [193.0, 236.0], "includesElement__vdw_radius_uff": [366.0, 299.8], "includesElement__abundance_sea": [0.5], "includesElement__c6_gb": [25.7, 939.0], "includesElement__covalent_radius_bragg": [65.0], "includesElement__electronegativity_allen": [18.13, 8.94], "includesElement__en_allen": [18.13, 8.94], "includesElement__metallic_radius_c12": [53.0, 136.0], "includesElement__thermal_conductivity": [0.026, 50.6], "includesElement__vdw_radius_batsanov": [160.0, 205.0], "includesElement__c6": [24.2], "includesElement__vdw_radius_dreiding": [366.21], "includesElement__gas_basicity": [318.7], "includesElement__proton_affinity": [342.2], "includesElement__vdw_radius_bondi": [155.0], "includesElement__vdw_radius_rt": [164.0], "includesElement__evaporation_heat": [585.0], "includesElement__fusion_heat": [23.8], "includesElement__atomic_weight_uncertainty": [3e-05], "includesElement__metallic_radius": [127.0], "formula": ["N2Tc4"], "spacegroup": ["194"], "thermalConductivity": [18.7691], "icsd": ["182011"], "band_gap": [0.0], "density": [10.42628], "density_atomic": [11.14889], "deprecated": [false], "efermi": [9.198988], "energy_above_hull": [0.0], "energy_per_atom": [-20.58565], "formation_energy_per_atom": [-0.2329587], "is_gap_direct": [false], "is_magnetic": [false], "is_metal": [true], "is_stable": [true], "nelements": [2], "nsites": [6], "num_magnetic_sites": [0], "num_unique_magnetic_sites": [0], "theoretical": [true], "total_magnetization": [2e-07], "total_magnetization_normalized_formula_units": [1e-07], "total_magnetization_normalized_vol": [2.989833e-09], "uncorrected_energy_per_atom": [-20.58565], "volume": [66.89336], "equilibrium_reaction_energy_per_atom": [-0.0344063]}