{"includesElement": ["", "Ga", "Ho", "C"], "includesElement___series_id": [7, 9, 1], "includesElement__abundance_crust": [19.0, 1.3, 200.0], "includesElement__atomic_number": [31, 67, 6], "includesElement__atomic_radius": [130.0, 175.0, 70.0], "includesElement__atomic_radius_rahm": [233.0, 273.0, 190.0], "includesElement__atomic_volume": [11.8, 18.7, 5.3], "includesElement__atomic_weight": [69.723, 164.9303, 12.011], "includesElement__covalent_radius_cordero": [122.0, 192.0, 73.0], "includesElement__covalent_radius_pyykko": [124.0, 166.0, 75.0], "includesElement__covalent_radius_pyykko_double": [117.0, 133.0, 67.0], "includesElement__covalent_radius_pyykko_triple": [121.0, 60.0], "includesElement__density": [5.91, 8.8, 2.2], "includesElement__dipole_polarizability": [50.0, 156.0, 11.3], "includesElement__dipole_polarizability_unc": [3.0, 10.0, 0.2], "includesElement__discovery_year": [1875, 1878], "includesElement__electron_affinity": [0.43, 1.262119], "includesElement__electronegativity_allred-rochow": [0.0003251821, 0.0001034258, 0.0005777778], "includesElement__electronegativity_cottrell-sutton": [0.2008048, 0.1310293, 0.2081666], "includesElement__electronegativity_ghosh": [0.1723773, 0.207795, 0.224776], "includesElement__electronegativity_gordy": [0.04032258, 0.01716867, 0.04333333], "includesElement__electronegativity_mulliken": [3.214651, 3.01075, 6.261208], "includesElement__electronegativity_nagle": [0.3914868, 0.4367902, 0.7073926], "includesElement__electronegativity_pauling": [1.81, 1.23, 2.55], "includesElement__electronegativity_sanderson": [0.720541, 0.5434919, 0.427525], "includesElement__en_ghosh": [0.1723773, 0.207795, 0.224776], "includesElement__en_pauling": [1.81, 1.23, 2.55], "includesElement__evaporation_heat": [270.3, 301.0], "includesElement__fusion_heat": [5.59], "includesElement__glawe_number": [79, 23, 87], "includesElement__group_id": [13, 14], "includesElement__heat_of_formation": [271.96, 300.6, 716.87], "includesElement__is_radioactive": [false], "includesElement__lattice_constant": [4.51, 3.58, 3.57], "includesElement__mendeleev_number": [83, 33, 87], "includesElement__molar_heat_capacity": [26.03, 27.15, 8.517], "includesElement__period": [4, 6, 2], "includesElement__pettifor_number": [81, 24, 95], "includesElement__specific_heat_capacity": [0.373, 0.165, 0.709], "includesElement__vdw_radius": [187.0, 230.0, 170.0], "includesElement__vdw_radius_alvarez": [232.0, 281.0, 177.0], "includesElement__vdw_radius_mm3": [246.0, 267.0, 204.0], "includesElement__vdw_radius_uff": [438.3, 340.9, 385.1], "includesElement__abundance_sea": [3e-05, 2.2e-07, 28.0], "includesElement__atomic_weight_uncertainty": [0.001, 2e-05], "includesElement__c6_gb": [456.0, 2280.0, 47.9], "includesElement__electronegativity_allen": [10.39, 15.05], "includesElement__en_allen": [10.39, 15.05], "includesElement__metallic_radius": [125.0], "includesElement__metallic_radius_c12": [140.0, 86.0], "includesElement__thermal_conductivity": [28.1, 1.59], "includesElement__vdw_radius_batsanov": [210.0, 170.0], "includesElement__c6": [498.0, 46.6], "includesElement__vdw_radius_dreiding": [439.0, 389.83], "includesElement__vdw_radius_bondi": [187.0, 170.0], "includesElement__is_monoisotopic": [true], "includesElement__covalent_radius_bragg": [77.0], "includesElement__vdw_radius_rt": [177.0], "formula": ["C1Ga1Ho3"], "spacegroup": ["221"], "thermalConductivity": [2.79809], "icsd": ["76843"], "band_gap": [0.0], "density": [6.524338], "density_atomic": [29.34679], "deprecated": [false], "efermi": [1.639983], "energy_above_hull": [1.618685], "energy_per_atom": [-4.013241], "formation_energy_per_atom": [1.196719], "homogeneous_poisson": [0.303], "is_gap_direct": [false], "is_magnetic": [false], "is_metal": [true], "is_stable": [false], "nelements": [3], "nsites": [5], "num_magnetic_sites": [0], "num_unique_magnetic_sites": [0], "theoretical": [false], "total_magnetization": [7.2e-06], "total_magnetization_normalized_formula_units": [7.2e-06], "total_magnetization_normalized_vol": [4.906841e-08], "uncorrected_energy_per_atom": [-4.013241], "universal_anisotropy": [7.797], "volume": [146.7339]}