{"includesElement": ["", "Tc", "B"], "includesElement___series_id": [8, 5], "includesElement__atomic_number": [43, 5], "includesElement__atomic_radius": [135.0, 85.0], "includesElement__atomic_radius_rahm": [252.0, 205.0], "includesElement__atomic_volume": [8.5, 4.6], "includesElement__atomic_weight": [97.90721, 10.81], "includesElement__covalent_radius_cordero": [147.0, 84.0], "includesElement__covalent_radius_pyykko": [128.0, 85.0], "includesElement__covalent_radius_pyykko_double": [120.0, 78.0], "includesElement__covalent_radius_pyykko_triple": [110.0, 73.0], "includesElement__density": [11.0, 2.34], "includesElement__dipole_polarizability": [79.0, 20.5], "includesElement__dipole_polarizability_unc": [10.0, 0.1], "includesElement__discovery_year": [1937, 1808], "includesElement__electron_affinity": [0.55, 0.279723], "includesElement__electronegativity_allred-rochow": [0.0002197266, 0.0003598616], "includesElement__electronegativity_cottrell-sutton": [0.1677051, 0.1748949], "includesElement__electronegativity_ghosh": [0.1344592, 0.184886], "includesElement__electronegativity_gordy": [0.028125, 0.03058824], "includesElement__electronegativity_mulliken": [3.83469, 4.288871], "includesElement__electronegativity_nagle": [0.4458174, 0.5269739], "includesElement__electronegativity_pauling": [2.1, 2.04], "includesElement__electronegativity_sanderson": [0.8753613, 0.2546274], "includesElement__en_ghosh": [0.1344592, 0.184886], "includesElement__en_pauling": [2.1, 2.04], "includesElement__evaporation_heat": [585.0, 504.5], "includesElement__fusion_heat": [23.8, 23.6], "includesElement__glawe_number": [59, 86], "includesElement__group_id": [7, 13], "includesElement__heat_of_formation": [678.0, 565.0], "includesElement__is_radioactive": [true, false], "includesElement__lattice_constant": [2.74, 8.73], "includesElement__mendeleev_number": [56, 81], "includesElement__period": [5, 2], "includesElement__pettifor_number": [58, 86], "includesElement__vdw_radius": [216.0, 192.0], "includesElement__vdw_radius_alvarez": [244.0, 191.0], "includesElement__vdw_radius_mm3": [236.0, 215.0], "includesElement__vdw_radius_uff": [299.8, 408.3], "includesElement__atomic_weight_uncertainty": [3e-05], "includesElement__c6_gb": [939.0, 99.2], "includesElement__electronegativity_allen": [8.94, 12.13], "includesElement__en_allen": [8.94, 12.13], "includesElement__metallic_radius": [127.0, 80.0], "includesElement__metallic_radius_c12": [136.0, 98.0], "includesElement__thermal_conductivity": [50.6, 27.4], "includesElement__vdw_radius_batsanov": [205.0, 180.0], "includesElement__abundance_crust": [10.0], "includesElement__molar_heat_capacity": [11.087], "includesElement__specific_heat_capacity": [1.026], "includesElement__abundance_sea": [4.44], "includesElement__c6": [99.5], "includesElement__vdw_radius_dreiding": [402.0], "includesElement__vdw_radius_truhlar": [192.0], "formula": ["B1Tc1"], "spacegroup": ["187"], "thermalConductivity": [56.7175], "icsd": ["168895"], "band_gap": [0.0], "density": [8.537337], "density_atomic": [10.58204], "deprecated": [false], "efermi": [8.10665], "energy_above_hull": [0.1027314], "energy_per_atom": [-16.96902], "formation_energy_per_atom": [-0.3135114], "homogeneous_poisson": [0.255], "is_gap_direct": [false], "is_magnetic": [false], "is_metal": [true], "is_stable": [false], "nelements": [2], "nsites": [2], "num_magnetic_sites": [0], "num_unique_magnetic_sites": [0], "theoretical": [true], "total_magnetization": [0.0020834], "total_magnetization_normalized_formula_units": [0.0020834], "total_magnetization_normalized_vol": [9.844036e-05], "uncorrected_energy_per_atom": [-8.802417], "universal_anisotropy": [0.139], "volume": [21.16408]}