{"includesElement": ["", "P", "La", "Os"], "includesElement___series_id": [1, 9, 8], "includesElement__abundance_crust": [1050.0, 39.0, 0.0015], "includesElement__atomic_number": [15, 57, 76], "includesElement__atomic_radius": [100.0, 195.0, 130.0], "includesElement__atomic_radius_rahm": [223.0, 284.0, 244.0], "includesElement__atomic_volume": [17.0, 22.5, 8.43], "includesElement__atomic_weight": [30.97376, 138.9055, 190.23], "includesElement__covalent_radius_cordero": [107.0, 207.0, 144.0], "includesElement__covalent_radius_pyykko": [111.0, 180.0, 129.0], "includesElement__covalent_radius_pyykko_double": [102.0, 139.0, 116.0], "includesElement__covalent_radius_pyykko_triple": [94.0, 139.0, 109.0], "includesElement__density": [1.823, 6.15, 22.5872], "includesElement__dipole_polarizability": [25.0, 215.0, 57.0], "includesElement__dipole_polarizability_unc": [1.0, 20.0, 3.0], "includesElement__discovery_year": [1669, 1839, 1804], "includesElement__electron_affinity": [0.746607, 0.47, 1.1], "includesElement__electronegativity_allred-rochow": [0.0003895788, 9.259259e-05, 0.000225347], "includesElement__electronegativity_cottrell-sutton": [0.2079501, 0.1290994, 0.1704986], "includesElement__electronegativity_ghosh": [0.206931, 0.163142, 0.2479845], "includesElement__electronegativity_gordy": [0.04324324, 0.01666667, 0.02906977], "includesElement__electronegativity_mulliken": [5.616646, 3.02345, 4.769115], "includesElement__electronegativity_nagle": [0.5848035, 0.240747, 0.5196828], "includesElement__electronegativity_pauling": [2.19, 1.1, 2.2], "includesElement__electronegativity_sanderson": [0.4510269, 0.3946505, 1.239276], "includesElement__en_ghosh": [0.206931, 0.163142, 0.2479845], "includesElement__en_pauling": [2.19, 1.1, 2.2], "includesElement__evaporation_heat": [49.8, 402.0, 738.0], "includesElement__fusion_heat": [2.51, 8.5, 31.7], "includesElement__glawe_number": [89, 32, 60], "includesElement__group_id": [15, 3, 8], "includesElement__heat_of_formation": [316.5, 431.0, 787.0], "includesElement__is_radioactive": [false], "includesElement__lattice_constant": [7.17, 3.75, 2.74], "includesElement__mendeleev_number": [94, 13, 61], "includesElement__molar_heat_capacity": [23.824, 27.11, 24.7], "includesElement__period": [3, 6], "includesElement__pettifor_number": [90, 33, 62], "includesElement__specific_heat_capacity": [0.769, 0.195, 0.13], "includesElement__vdw_radius": [180.0, 243.0, 216.0], "includesElement__vdw_radius_alvarez": [190.0, 298.0, 248.0], "includesElement__vdw_radius_mm3": [222.0, 278.0, 235.0], "includesElement__vdw_radius_uff": [414.7, 352.2, 312.0], "includesElement__abundance_sea": [0.06, 3.4e-06], "includesElement__atomic_weight_uncertainty": [5e-09, 7e-05, 0.03], "includesElement__c6_gb": [187.0, 3730.0, 584.0], "includesElement__electronegativity_allen": [13.33, 9.78], "includesElement__en_allen": [13.33, 9.78], "includesElement__metallic_radius": [110.0, 169.0, 126.0], "includesElement__metallic_radius_c12": [128.0, 187.0, 135.0], "includesElement__vdw_radius_batsanov": [195.0, 250.0, 200.0], "includesElement__c6": [185.0], "includesElement__is_monoisotopic": [true], "includesElement__vdw_radius_dreiding": [415.0], "includesElement__gas_basicity": [604.8, 991.9], "includesElement__proton_affinity": [626.8, 1013.0], "includesElement__vdw_radius_bondi": [180.0], "includesElement__thermal_conductivity": [13.4], "formula": ["La1Os4P12"], "spacegroup": ["204"], "thermalConductivity": [6.78431], "icsd": ["641615"], "band_gap": [0.0], "density": [7.932315], "density_atomic": [15.65742], "deprecated": [false], "efermi": [8.217945], "energy_above_hull": [0.0], "energy_per_atom": [-7.374146], "formation_energy_per_atom": [-0.6193715], "is_gap_direct": [false], "is_magnetic": [false], "is_metal": [true], "is_stable": [true], "nelements": [3], "nsites": [17], "num_magnetic_sites": [0], "num_unique_magnetic_sites": [0], "theoretical": [false], "total_magnetization": [6.7e-06], "total_magnetization_normalized_formula_units": [6.7e-06], "total_magnetization_normalized_vol": [2.51713e-08], "uncorrected_energy_per_atom": [-21.278], "volume": [266.1761], "equilibrium_reaction_energy_per_atom": [-0.03813009]}