{"includesElement": ["", "Zn", "N", "Sr"], "includesElement___series_id": [8, 1, 4], "includesElement__abundance_crust": [70.0, 19.0, 370.0], "includesElement__atomic_number": [30, 7, 38], "includesElement__atomic_radius": [135.0, 65.0, 200.0], "includesElement__atomic_radius_rahm": [222.0, 179.0, 279.0], "includesElement__atomic_volume": [9.2, 17.3, 33.7], "includesElement__atomic_weight": [65.38, 14.007, 87.62], "includesElement__covalent_radius_cordero": [122.0, 71.0, 195.0], "includesElement__covalent_radius_pyykko": [118.0, 71.0, 185.0], "includesElement__covalent_radius_pyykko_double": [120.0, 60.0, 157.0], "includesElement__density": [7.134, 0.001145, 2.64], "includesElement__dipole_polarizability": [38.67, 7.4, 197.2], "includesElement__dipole_polarizability_unc": [0.3, 0.2], "includesElement__electronegativity_allred-rochow": [0.0003124102, 0.000773656, 8.327246e-05], "includesElement__electronegativity_cottrell-sutton": [0.1920011, 0.2343706, 0.1241185], "includesElement__electronegativity_ghosh": [0.1551518, 0.26493, 0.1185082], "includesElement__electronegativity_gordy": [0.03686441, 0.05492958, 0.01540541], "includesElement__electronegativity_mulliken": [4.6971, 6.567065, 2.871434], "includesElement__electronegativity_nagle": [0.6770213, 0.8774979, 0.2164584], "includesElement__electronegativity_pauling": [1.65, 3.04, 0.95], "includesElement__electronegativity_sanderson": [0.8100877, 0.577482, 0.2631786], "includesElement__en_ghosh": [0.1551518, 0.26493, 0.1185082], "includesElement__en_pauling": [1.65, 3.04, 0.95], "includesElement__evaporation_heat": [114.8, 144.0], "includesElement__fusion_heat": [7.28, 9.2], "includesElement__glawe_number": [74, 88, 15], "includesElement__group_id": [12, 15, 2], "includesElement__heat_of_formation": [130.4, 472.44, 164.0], "includesElement__is_radioactive": [false], "includesElement__lattice_constant": [2.66, 4.039, 6.08], "includesElement__mendeleev_number": [77, 93, 8], "includesElement__molar_heat_capacity": [25.39, 29.124, 26.79], "includesElement__period": [4, 2, 5], "includesElement__pettifor_number": [76, 100, 15], "includesElement__specific_heat_capacity": [0.388, 1.04, 0.306], "includesElement__vdw_radius": [201.0, 155.0, 249.0], "includesElement__vdw_radius_alvarez": [239.0, 166.0, 284.0], "includesElement__vdw_radius_mm3": [229.0, 193.0, 300.0], "includesElement__vdw_radius_uff": [276.3, 366.0, 364.1], "includesElement__abundance_sea": [0.0049, 0.5, 7.9], "includesElement__atomic_weight_uncertainty": [0.02, 0.01], "includesElement__c6_gb": [276.0, 25.7, 3230.0], "includesElement__covalent_radius_bragg": [132.0, 65.0, 195.0], "includesElement__electronegativity_allen": [9.395, 18.13, 5.695], "includesElement__en_allen": [9.395, 18.13, 5.695], "includesElement__metallic_radius": [121.0, 191.0], "includesElement__metallic_radius_c12": [134.0, 53.0, 215.0], "includesElement__thermal_conductivity": [116.0, 0.026], "includesElement__vdw_radius_batsanov": [210.0, 160.0, 255.0], "includesElement__c6": [284.0, 24.2, 3175.0], "includesElement__gas_basicity": [586.0, 318.7], "includesElement__proton_affinity": [608.6, 342.2], "includesElement__covalent_radius_pyykko_triple": [54.0, 139.0], "includesElement__discovery_year": [1772, 1790], "includesElement__electron_affinity": [-1.4, 0.048], "includesElement__vdw_radius_dreiding": [366.21], "includesElement__vdw_radius_bondi": [155.0], "includesElement__vdw_radius_rt": [164.0], "includesElement__vdw_radius_truhlar": [249.0], "formula": ["N2Sr2Zn1"], "spacegroup": ["139"], "thermalConductivity": [5.27468], "icsd": ["80376"], "band_gap": [0.7945], "density": [4.678096], "density_atomic": [19.07291], "deprecated": [false], "efermi": [2.692008], "energy_above_hull": [0.0], "energy_per_atom": [-12.21363], "formation_energy_per_atom": [-0.7217467], "homogeneous_poisson": [0.276], "is_gap_direct": [false], "is_magnetic": [false], "is_metal": [false], "is_stable": [true], "nelements": [3], "nsites": [5], "num_magnetic_sites": [0], "num_unique_magnetic_sites": [0], "theoretical": [false], "total_magnetization": [0.0], "total_magnetization_normalized_formula_units": [0.0], "total_magnetization_normalized_vol": [0.0], "uncorrected_energy_per_atom": [-12.21363], "universal_anisotropy": [0.781], "volume": [95.36454], "cbm": [3.1675], "e_electronic": [6.281644], "e_ionic": [11.55493], "e_total": [17.83658], "equilibrium_reaction_energy_per_atom": [-0.1556318], "n": [2.506321], "vbm": [2.373]}