{"includesElement": ["", "Ag", "K", "C"], "includesElement___series_id": [8, 3, 1], "includesElement__abundance_crust": [0.075, 20900.0, 200.0], "includesElement__atomic_number": [47, 19, 6], "includesElement__atomic_radius": [160.0, 220.0, 70.0], "includesElement__atomic_radius_rahm": [225.0, 234.0, 190.0], "includesElement__atomic_volume": [10.3, 45.3, 5.3], "includesElement__atomic_weight": [107.8682, 39.0983, 12.011], "includesElement__covalent_radius_cordero": [145.0, 203.0, 73.0], "includesElement__covalent_radius_pyykko": [128.0, 196.0, 75.0], "includesElement__covalent_radius_pyykko_double": [139.0, 193.0, 67.0], "includesElement__covalent_radius_pyykko_triple": [137.0, 60.0], "includesElement__density": [10.5, 0.89, 2.2], "includesElement__dipole_polarizability": [55.0, 289.7, 11.3], "includesElement__dipole_polarizability_unc": [8.0, 0.3, 0.2], "includesElement__electron_affinity": [1.302, 0.50147, 1.262119], "includesElement__electronegativity_allred-rochow": [0.0002258301, 5.726781e-05, 0.0005777778], "includesElement__electronegativity_cottrell-sutton": [0.1700184, 0.1059457, 0.2081666], "includesElement__electronegativity_ghosh": [0.1472165, 0.0981896, 0.224776], "includesElement__electronegativity_gordy": [0.02890625, 0.01122449, 0.04333333], "includesElement__electronegativity_mulliken": [4.439117, 2.421067, 6.261208], "includesElement__electronegativity_nagle": [0.5848035, 0.1511299, 0.7073926], "includesElement__electronegativity_pauling": [1.93, 0.82, 2.55], "includesElement__electronegativity_sanderson": [0.9437955, 0.1218383, 0.427525], "includesElement__en_ghosh": [0.1472165, 0.0981896, 0.224776], "includesElement__en_pauling": [1.93, 0.82, 2.55], "includesElement__evaporation_heat": [254.1, 2.33], "includesElement__fusion_heat": [11.95, 102.5], "includesElement__glawe_number": [67, 10, 87], "includesElement__group_id": [11, 1, 14], "includesElement__heat_of_formation": [284.9, 89.0, 716.87], "includesElement__is_radioactive": [false], "includesElement__lattice_constant": [4.09, 5.23, 3.57], "includesElement__mendeleev_number": [72, 3, 87], "includesElement__molar_heat_capacity": [25.35, 29.6, 8.517], "includesElement__period": [5, 4, 2], "includesElement__pettifor_number": [71, 10, 95], "includesElement__specific_heat_capacity": [0.235, 0.757, 0.709], "includesElement__vdw_radius": [211.0, 275.0, 170.0], "includesElement__vdw_radius_alvarez": [253.0, 273.0, 177.0], "includesElement__vdw_radius_mm3": [243.0, 309.0, 204.0], "includesElement__vdw_radius_uff": [314.8, 381.2, 385.1], "includesElement__abundance_sea": [4e-05, 399.0, 28.0], "includesElement__atomic_weight_uncertainty": [0.0002, 0.0001], "includesElement__c6_gb": [341.0, 3910.0, 47.9], "includesElement__covalent_radius_bragg": [177.0, 207.0, 77.0], "includesElement__electronegativity_allen": [11.05, 4.34, 15.05], "includesElement__en_allen": [11.05, 4.34, 15.05], "includesElement__metallic_radius": [134.0, 203.0], "includesElement__metallic_radius_c12": [144.0, 235.0, 86.0], "includesElement__thermal_conductivity": [429.0, 79.0, 1.59], "includesElement__vdw_radius_batsanov": [210.0, 280.0, 170.0], "includesElement__discovery_year": [1807], "includesElement__c6": [3923.0, 46.6], "includesElement__vdw_radius_bondi": [275.0, 170.0], "includesElement__vdw_radius_dreiding": [389.83], "includesElement__vdw_radius_rt": [177.0], "formula": ["Ag1C2K1"], "spacegroup": ["123"], "thermalConductivity": [4.29392], "icsd": ["410874"], "band_gap": [2.4769], "density": [2.825297], "density_atomic": [25.1241], "deprecated": [false], "efermi": [-1.266163], "energy_above_hull": [0.3789531], "energy_per_atom": [-5.245142], "formation_energy_per_atom": [0.3627674], "homogeneous_poisson": [0.289], "is_gap_direct": [false], "is_magnetic": [false], "is_metal": [false], "is_stable": [false], "nelements": [3], "nsites": [4], "num_magnetic_sites": [0], "num_unique_magnetic_sites": [0], "theoretical": [false], "total_magnetization": [0.0], "total_magnetization_normalized_formula_units": [0.0], "total_magnetization_normalized_vol": [0.0], "uncorrected_energy_per_atom": [-5.245142], "universal_anisotropy": [21.699], "volume": [100.4964], "cbm": [1.0897], "vbm": [-1.3872]}