{"includesElement": ["", "As", "Cd", "Pd"], "includesElement___series_id": [5, 8], "includesElement__abundance_crust": [1.8, 0.15, 0.015], "includesElement__atomic_number": [33, 48, 46], "includesElement__atomic_radius": [115.0, 155.0, 140.0], "includesElement__atomic_radius_rahm": [231.0, 238.0, 215.0], "includesElement__atomic_volume": [13.1, 8.9], "includesElement__atomic_weight": [74.92159, 112.414, 106.42], "includesElement__covalent_radius_cordero": [119.0, 144.0, 139.0], "includesElement__covalent_radius_pyykko": [121.0, 136.0, 120.0], "includesElement__covalent_radius_pyykko_double": [114.0, 144.0, 117.0], "includesElement__covalent_radius_pyykko_triple": [106.0, 112.0], "includesElement__density": [5.75, 8.69, 12.0], "includesElement__dipole_polarizability": [30.0, 46.0, 26.14], "includesElement__dipole_polarizability_unc": [1.0, 2.0, 0.1], "includesElement__electron_affinity": [0.804, 0.562], "includesElement__electronegativity_allred-rochow": [0.0004302985, 0.000235186, 0.0004756944], "includesElement__electronegativity_cottrell-sutton": [0.22818, 0.1788443, 0.2389212], "includesElement__electronegativity_ghosh": [0.2068208, 0.1504066, 0.1440276], "includesElement__electronegativity_gordy": [0.05206612, 0.03198529, 0.05708333], "includesElement__electronegativity_mulliken": [5.2965, 4.496911, 4.44943], "includesElement__electronegativity_nagle": [0.5503212, 0.6389612, 0.7259357], "includesElement__electronegativity_pauling": [2.18, 1.69, 2.2], "includesElement__electronegativity_sanderson": [0.8253373, 0.801562, 1.124263], "includesElement__en_ghosh": [0.2068208, 0.1504066, 0.1440276], "includesElement__en_pauling": [2.18, 1.69, 2.2], "includesElement__evaporation_heat": [32.4, 59.1, 372.4], "includesElement__glawe_number": [90, 75, 65], "includesElement__group_id": [15, 12, 10], "includesElement__heat_of_formation": [302.5, 111.8, 376.6], "includesElement__is_radioactive": [false], "includesElement__lattice_constant": [4.13, 2.98, 3.89], "includesElement__mendeleev_number": [95, 78, 68], "includesElement__molar_heat_capacity": [24.64, 26.02, 25.98], "includesElement__period": [4, 5], "includesElement__pettifor_number": [89, 75, 69], "includesElement__specific_heat_capacity": [0.329, 0.232, 0.246], "includesElement__vdw_radius": [185.0, 218.0, 210.0], "includesElement__vdw_radius_alvarez": [188.0, 249.0, 215.0], "includesElement__vdw_radius_mm3": [236.0, 250.0, 237.0], "includesElement__vdw_radius_uff": [423.0, 284.8, 289.9], "includesElement__abundance_sea": [0.0037, 0.00011], "includesElement__atomic_weight_uncertainty": [6e-06, 0.004, 0.01], "includesElement__c6_gb": [260.0, 405.0, 628.0], "includesElement__covalent_radius_bragg": [126.0, 160.0], "includesElement__electronegativity_allen": [13.08, 8.995, 9.402], "includesElement__en_allen": [13.08, 8.995, 9.402], "includesElement__metallic_radius": [121.0, 138.0, 128.0], "includesElement__metallic_radius_c12": [148.0, 151.0, 137.0], "includesElement__vdw_radius_batsanov": [205.0, 220.0], "includesElement__c6": [246.0], "includesElement__is_monoisotopic": [true], "includesElement__vdw_radius_dreiding": [415.0], "includesElement__vdw_radius_bondi": [185.0], "includesElement__discovery_year": [1817, 1803], "includesElement__fusion_heat": [6.11, 17.24], "includesElement__thermal_conductivity": [96.9, 71.8], "includesElement__gas_basicity": [673.4], "includesElement__proton_affinity": [696.0], "formula": ["As1Cd1Pd5"], "spacegroup": ["123"], "thermalConductivity": [1.64888], "icsd": ["609974"], "band_gap": [0.0], "density": [10.52626], "density_atomic": [16.21314], "deprecated": [false], "efermi": [4.292598], "energy_above_hull": [0.0], "energy_per_atom": [-4.884539], "formation_energy_per_atom": [-0.3803184], "is_gap_direct": [false], "is_magnetic": [false], "is_metal": [true], "is_stable": [true], "nelements": [3], "nsites": [7], "num_magnetic_sites": [0], "num_unique_magnetic_sites": [0], "theoretical": [false], "total_magnetization": [2e-07], "total_magnetization_normalized_formula_units": [2e-07], "total_magnetization_normalized_vol": [1.762239e-09], "uncorrected_energy_per_atom": [-21.77759], "volume": [113.492], "equilibrium_reaction_energy_per_atom": [-0.04345866]}