{"includesElement": ["", "La", "Rh"], "includesElement___series_id": [9, 8], "includesElement__abundance_crust": [39.0, 0.001], "includesElement__atomic_number": [57, 45], "includesElement__atomic_radius": [195.0, 135.0], "includesElement__atomic_radius_rahm": [284.0, 233.0], "includesElement__atomic_volume": [22.5, 8.3], "includesElement__atomic_weight": [138.9055, 102.9055], "includesElement__covalent_radius_cordero": [207.0, 142.0], "includesElement__covalent_radius_pyykko": [180.0, 125.0], "includesElement__covalent_radius_pyykko_double": [139.0, 110.0], "includesElement__covalent_radius_pyykko_triple": [139.0, 106.0], "includesElement__density": [6.15, 12.4], "includesElement__dipole_polarizability": [215.0, 66.0], "includesElement__dipole_polarizability_unc": [20.0, 10.0], "includesElement__discovery_year": [1839, 1803], "includesElement__electron_affinity": [0.47, 1.137], "includesElement__electronegativity_allred-rochow": [9.259259e-05, 0.0002176], "includesElement__electronegativity_cottrell-sutton": [0.1290994, 0.1649242], "includesElement__electronegativity_ghosh": [0.163142, 0.1408379], "includesElement__electronegativity_gordy": [0.01666667, 0.0272], "includesElement__electronegativity_mulliken": [3.02345, 4.29795], "includesElement__electronegativity_nagle": [0.240747, 0.5147142], "includesElement__electronegativity_pauling": [1.1, 2.28], "includesElement__electronegativity_sanderson": [0.3946505, 0.9761915], "includesElement__en_ghosh": [0.163142, 0.1408379], "includesElement__en_pauling": [1.1, 2.28], "includesElement__evaporation_heat": [402.0, 494.0], "includesElement__fusion_heat": [8.5, 21.8], "includesElement__glawe_number": [32, 63], "includesElement__group_id": [3, 9], "includesElement__heat_of_formation": [431.0, 556.0], "includesElement__is_radioactive": [false], "includesElement__lattice_constant": [3.75, 3.8], "includesElement__mendeleev_number": [13, 64], "includesElement__molar_heat_capacity": [27.11, 24.98], "includesElement__period": [6, 5], "includesElement__pettifor_number": [33, 66], "includesElement__specific_heat_capacity": [0.195, 0.243], "includesElement__vdw_radius": [243.0, 210.0], "includesElement__vdw_radius_alvarez": [298.0, 244.0], "includesElement__vdw_radius_mm3": [278.0, 234.0], "includesElement__vdw_radius_uff": [352.2, 292.9], "includesElement__abundance_sea": [3.4e-06], "includesElement__atomic_weight_uncertainty": [7e-05, 2e-05], "includesElement__c6_gb": [3730.0, 708.0], "includesElement__metallic_radius": [169.0, 125.0], "includesElement__metallic_radius_c12": [187.0, 134.0], "includesElement__thermal_conductivity": [13.4, 150.0], "includesElement__vdw_radius_batsanov": [250.0, 200.0], "includesElement__gas_basicity": [991.9, 745.4], "includesElement__proton_affinity": [1013.0, 768.0], "includesElement__electronegativity_allen": [9.259], "includesElement__en_allen": [9.259], "includesElement__is_monoisotopic": [true], "formula": ["La8Rh6"], "spacegroup": ["220"], "thermalConductivity": [1.22864], "icsd": ["656948"], "band_gap": [0.0], "density": [7.9138], "density_atomic": [25.90895], "deprecated": [false], "efermi": [7.746292], "energy_above_hull": [0.0], "energy_per_atom": [-6.681938], "formation_energy_per_atom": [-0.7052303], "is_gap_direct": [false], "is_magnetic": [false], "is_metal": [true], "is_stable": [true], "nelements": [2], "nsites": [14], "num_magnetic_sites": [0], "num_unique_magnetic_sites": [0], "theoretical": [false], "total_magnetization": [2e-06], "total_magnetization_normalized_formula_units": [1e-06], "total_magnetization_normalized_vol": [5.513815e-09], "uncorrected_energy_per_atom": [-28.0931], "volume": [362.7253], "equilibrium_reaction_energy_per_atom": [-0.03690644]}