{"includesElement": ["", "N", "Ti", "In"], "includesElement___series_id": [1, 8, 7], "includesElement__abundance_crust": [19.0, 5650.0, 0.25], "includesElement__atomic_number": [7, 22, 49], "includesElement__atomic_radius": [65.0, 140.0, 155.0], "includesElement__atomic_radius_rahm": [179.0, 257.0, 246.0], "includesElement__atomic_volume": [17.3, 10.6, 15.7], "includesElement__atomic_weight": [14.007, 47.867, 114.818], "includesElement__covalent_radius_cordero": [71.0, 160.0, 142.0], "includesElement__covalent_radius_pyykko": [71.0, 136.0, 142.0], "includesElement__covalent_radius_pyykko_double": [60.0, 117.0, 136.0], "includesElement__covalent_radius_pyykko_triple": [54.0, 108.0, 146.0], "includesElement__density": [0.001145, 4.506, 7.31], "includesElement__dipole_polarizability": [7.4, 100.0, 65.0], "includesElement__dipole_polarizability_unc": [0.2, 10.0, 4.0], "includesElement__discovery_year": [1772, 1791, 1863], "includesElement__electron_affinity": [-1.4, 0.079, 0.3], "includesElement__electronegativity_allred-rochow": [0.000773656, 0.0001703071, 0.0002479667], "includesElement__electronegativity_cottrell-sutton": [0.2343706, 0.1521899, 0.1876467], "includesElement__electronegativity_ghosh": [0.26493, 0.1233637, 0.16423], "includesElement__electronegativity_gordy": [0.05492958, 0.02316176, 0.03521127], "includesElement__electronegativity_mulliken": [6.567065, 3.45356, 3.043178], "includesElement__electronegativity_nagle": [0.8774979, 0.3419952, 0.3587038], "includesElement__electronegativity_pauling": [3.04, 1.54, 1.78], "includesElement__electronegativity_sanderson": [0.577482, 0.4055462, 0.7172747], "includesElement__en_ghosh": [0.26493, 0.1233637, 0.16423], "includesElement__en_pauling": [3.04, 1.54, 1.78], "includesElement__glawe_number": [88, 51, 80], "includesElement__group_id": [15, 4, 13], "includesElement__heat_of_formation": [472.44, 473.0, 243.0], "includesElement__is_radioactive": [false], "includesElement__lattice_constant": [4.039, 2.95, 4.59], "includesElement__mendeleev_number": [93, 43, 84], "includesElement__molar_heat_capacity": [29.124, 25.06, 26.74], "includesElement__period": [2, 4, 5], "includesElement__pettifor_number": [100, 51, 79], "includesElement__specific_heat_capacity": [1.04, 0.523, 0.233], "includesElement__vdw_radius": [155.0, 211.0, 193.0], "includesElement__vdw_radius_alvarez": [166.0, 246.0, 243.0], "includesElement__vdw_radius_mm3": [193.0, 239.0, 264.0], "includesElement__vdw_radius_uff": [366.0, 317.5, 446.3], "includesElement__abundance_sea": [0.5, 0.001, 0.02], "includesElement__c6_gb": [25.7, 1200.0, 643.0], "includesElement__covalent_radius_bragg": [65.0, 140.0], "includesElement__electronegativity_allen": [18.13, 8.17, 9.793], "includesElement__en_allen": [18.13, 8.17, 9.793], "includesElement__metallic_radius_c12": [53.0, 147.0, 158.0], "includesElement__thermal_conductivity": [0.026, 21.9, 81.8], "includesElement__vdw_radius_batsanov": [160.0, 215.0, 220.0], "includesElement__c6": [24.2, 1044.0, 779.0], "includesElement__vdw_radius_dreiding": [366.21, 459.0], "includesElement__gas_basicity": [318.7, 853.7], "includesElement__proton_affinity": [342.2, 876.0], "includesElement__vdw_radius_bondi": [155.0, 193.0], "includesElement__vdw_radius_rt": [164.0], "includesElement__evaporation_heat": [422.6, 225.1], "includesElement__fusion_heat": [18.8, 3.24], "includesElement__atomic_weight_uncertainty": [0.001], "includesElement__metallic_radius": [132.0, 142.0], "formula": ["In2N2Ti4"], "spacegroup": ["194"], "thermalConductivity": [12.393], "icsd": ["640030"], "band_gap": [0.0], "density": [6.496356], "density_atomic": [14.34991], "deprecated": [false], "efermi": [8.363734], "energy_above_hull": [0.0], "energy_per_atom": [-7.876488], "formation_energy_per_atom": [-1.154379], "is_gap_direct": [false], "is_magnetic": [false], "is_metal": [true], "is_stable": [true], "nelements": [3], "nsites": [8], "num_magnetic_sites": [0], "num_unique_magnetic_sites": [0], "theoretical": [false], "total_magnetization": [3.4e-06], "total_magnetization_normalized_formula_units": [1.7e-06], "total_magnetization_normalized_vol": [2.961691e-08], "uncorrected_energy_per_atom": [-15.60227], "volume": [114.7993], "equilibrium_reaction_energy_per_atom": [-0.07649796]}