{"includesElement": ["", "Ni", "Ga", "Er"], "includesElement___series_id": [8, 7, 9], "includesElement__abundance_crust": [84.0, 19.0, 3.5], "includesElement__atomic_number": [28, 31, 68], "includesElement__atomic_radius": [135.0, 130.0, 175.0], "includesElement__atomic_radius_rahm": [229.0, 233.0, 272.0], "includesElement__atomic_volume": [6.6, 11.8, 18.4], "includesElement__atomic_weight": [58.6934, 69.723, 167.259], "includesElement__covalent_radius_cordero": [124.0, 122.0, 189.0], "includesElement__covalent_radius_pyykko": [110.0, 124.0, 165.0], "includesElement__covalent_radius_pyykko_double": [101.0, 117.0, 133.0], "includesElement__covalent_radius_pyykko_triple": [101.0, 121.0], "includesElement__density": [8.9, 5.91, 9.07], "includesElement__dipole_polarizability": [49.0, 50.0, 150.0], "includesElement__dipole_polarizability_unc": [3.0, 10.0], "includesElement__discovery_year": [1751, 1875, 1843], "includesElement__electron_affinity": [1.156, 0.43], "includesElement__electronegativity_allred-rochow": [0.0003347107, 0.0003251821, 0.0001046832], "includesElement__electronegativity_cottrell-sutton": [0.1918806, 0.2008048, 0.1314257], "includesElement__electronegativity_ghosh": [0.1472068, 0.1723773, 0.212261], "includesElement__electronegativity_gordy": [0.03681818, 0.04032258, 0.01727273], "includesElement__electronegativity_mulliken": [4.397939, 3.214651, 3.05385], "includesElement__electronegativity_nagle": [0.588755, 0.3914868, 0.4536061], "includesElement__electronegativity_pauling": [1.91, 1.81, 1.24], "includesElement__electronegativity_sanderson": [0.937704, 0.720541, 0.5576573], "includesElement__en_ghosh": [0.1472068, 0.1723773, 0.212261], "includesElement__en_pauling": [1.91, 1.81, 1.24], "includesElement__evaporation_heat": [378.6, 270.3, 317.0], "includesElement__fusion_heat": [17.61, 5.59], "includesElement__glawe_number": [69, 79, 22], "includesElement__group_id": [10, 13], "includesElement__heat_of_formation": [430.1, 271.96, 316.4], "includesElement__is_radioactive": [false], "includesElement__lattice_constant": [3.52, 4.51, 3.56], "includesElement__mendeleev_number": [67, 83, 35], "includesElement__molar_heat_capacity": [26.07, 26.03, 28.12], "includesElement__period": [4, 6], "includesElement__pettifor_number": [67, 81, 23], "includesElement__specific_heat_capacity": [0.444, 0.373, 0.168], "includesElement__vdw_radius": [197.0, 187.0, 229.0], "includesElement__vdw_radius_alvarez": [240.0, 232.0, 283.0], "includesElement__vdw_radius_mm3": [222.0, 246.0, 267.0], "includesElement__vdw_radius_uff": [283.4, 438.3, 339.1], "includesElement__abundance_sea": [0.00056, 3e-05, 8.7e-07], "includesElement__atomic_weight_uncertainty": [0.0004, 0.001, 0.003], "includesElement__c6_gb": [393.0, 456.0, 2150.0], "includesElement__covalent_radius_bragg": [135.0], "includesElement__electronegativity_allen": [11.13, 10.39], "includesElement__en_allen": [11.13, 10.39], "includesElement__metallic_radius": [115.0, 125.0], "includesElement__metallic_radius_c12": [124.0, 140.0], "includesElement__thermal_conductivity": [90.9, 28.1], "includesElement__vdw_radius_batsanov": [200.0, 210.0], "includesElement__c6": [373.0, 498.0], "includesElement__gas_basicity": [714.1], "includesElement__proton_affinity": [737.0], "includesElement__vdw_radius_dreiding": [439.0], "includesElement__vdw_radius_bondi": [187.0], "formula": ["Er2Ga4Ni2"], "spacegroup": ["63"], "thermalConductivity": [3.55176], "icsd": ["630566"], "band_gap": [0.0], "density": [9.140025], "density_atomic": [16.59619], "deprecated": [false], "efermi": [4.810287], "energy_above_hull": [0.0], "energy_per_atom": [-4.756402], "formation_energy_per_atom": [-0.6553903], "is_gap_direct": [false], "is_magnetic": [false], "is_metal": [true], "is_stable": [true], "nelements": [3], "nsites": [8], "num_magnetic_sites": [0], "num_unique_magnetic_sites": [0], "theoretical": [false], "total_magnetization": [1e-07], "total_magnetization_normalized_formula_units": [5e-08], "total_magnetization_normalized_vol": [7.53185e-10], "uncorrected_energy_per_atom": [-17.89963], "volume": [132.7695], "equilibrium_reaction_energy_per_atom": [-0.06511577]}