{"includesElement": ["", "Tl", "Zr", "C"], "includesElement___series_id": [7, 8, 1], "includesElement__abundance_crust": [0.85, 165.0, 200.0], "includesElement__atomic_number": [81, 40, 6], "includesElement__atomic_radius": [190.0, 155.0, 70.0], "includesElement__atomic_radius_rahm": [242.0, 269.0, 190.0], "includesElement__atomic_volume": [17.2, 14.1, 5.3], "includesElement__atomic_weight": [204.38, 91.224, 12.011], "includesElement__covalent_radius_cordero": [145.0, 175.0, 73.0], "includesElement__covalent_radius_pyykko": [144.0, 154.0, 75.0], "includesElement__covalent_radius_pyykko_double": [142.0, 127.0, 67.0], "includesElement__covalent_radius_pyykko_triple": [150.0, 121.0, 60.0], "includesElement__density": [11.8, 6.52, 2.2], "includesElement__dipole_polarizability": [50.0, 112.0, 11.3], "includesElement__dipole_polarizability_unc": [2.0, 13.0, 0.2], "includesElement__discovery_year": [1861, 1789], "includesElement__electron_affinity": [0.377, 0.426, 1.262119], "includesElement__electronegativity_allred-rochow": [0.0002411265, 0.0001328217, 0.0005777778], "includesElement__electronegativity_cottrell-sutton": [0.186339, 0.1430194, 0.2081666], "includesElement__electronegativity_ghosh": [0.173447, 0.1248887, 0.224776], "includesElement__electronegativity_gordy": [0.03472222, 0.02045455, 0.04333333], "includesElement__electronegativity_mulliken": [3.242643, 3.52995, 6.261208], "includesElement__electronegativity_nagle": [0.3914868, 0.3293169, 0.7073926], "includesElement__electronegativity_pauling": [1.8, 1.33, 2.55], "includesElement__electronegativity_sanderson": [0.9245096, 0.4744467, 0.427525], "includesElement__en_ghosh": [0.173447, 0.1248887, 0.224776], "includesElement__en_pauling": [1.8, 1.33, 2.55], "includesElement__evaporation_heat": [162.4, 567.0], "includesElement__fusion_heat": [4.31, 19.2], "includesElement__glawe_number": [81, 49, 87], "includesElement__group_id": [13, 4, 14], "includesElement__heat_of_formation": [182.2, 610.0, 716.87], "includesElement__is_radioactive": [false], "includesElement__lattice_constant": [3.46, 3.23, 3.57], "includesElement__mendeleev_number": [85, 44, 87], "includesElement__molar_heat_capacity": [26.32, 25.36, 8.517], "includesElement__period": [6, 5, 2], "includesElement__pettifor_number": [78, 49, 95], "includesElement__specific_heat_capacity": [0.129, 0.278, 0.709], "includesElement__vdw_radius": [196.0, 223.0, 170.0], "includesElement__vdw_radius_alvarez": [247.0, 252.0, 177.0], "includesElement__vdw_radius_mm3": [259.0, 254.0, 204.0], "includesElement__vdw_radius_uff": [434.7, 312.4, 385.1], "includesElement__abundance_sea": [1.9e-05, 3e-05, 28.0], "includesElement__c6_gb": [509.0, 1360.0, 47.9], "includesElement__covalent_radius_bragg": [190.0, 77.0], "includesElement__metallic_radius": [144.0, 145.0], "includesElement__metallic_radius_c12": [160.0, 86.0], "includesElement__thermal_conductivity": [46.1, 22.7, 1.59], "includesElement__vdw_radius_batsanov": [220.0, 230.0, 170.0], "includesElement__vdw_radius_bondi": [196.0, 170.0], "includesElement__atomic_weight_uncertainty": [0.002], "includesElement__electronegativity_allen": [7.808, 15.05], "includesElement__en_allen": [7.808, 15.05], "includesElement__c6": [46.6], "includesElement__vdw_radius_dreiding": [389.83], "includesElement__vdw_radius_rt": [177.0], "formula": ["C2Tl2Zr4"], "spacegroup": ["194"], "thermalConductivity": [10.1859], "icsd": ["618976"], "band_gap": [0.0], "density": [8.927241], "density_atomic": [18.54696], "deprecated": [false], "efermi": [6.241358], "energy_above_hull": [0.0], "energy_per_atom": [-7.798769], "formation_energy_per_atom": [-0.6248847], "homogeneous_poisson": [0.225], "is_gap_direct": [false], "is_magnetic": [false], "is_metal": [true], "is_stable": [true], "nelements": [3], "nsites": [8], "num_magnetic_sites": [0], "num_unique_magnetic_sites": [0], "theoretical": [false], "total_magnetization": [1.1e-06], "total_magnetization_normalized_formula_units": [5.5e-07], "total_magnetization_normalized_vol": [7.413614e-09], "uncorrected_energy_per_atom": [-27.91837], "universal_anisotropy": [0.146], "volume": [148.3757], "equilibrium_reaction_energy_per_atom": [-0.1672664]}