{"includesElement": ["", "Nb", "B"], "includesElement___series_id": [8, 5], "includesElement__abundance_crust": [20.0, 10.0], "includesElement__atomic_number": [41, 5], "includesElement__atomic_radius": [145.0, 85.0], "includesElement__atomic_radius_rahm": [251.0, 205.0], "includesElement__atomic_volume": [10.8, 4.6], "includesElement__atomic_weight": [92.90637, 10.81], "includesElement__covalent_radius_cordero": [164.0, 84.0], "includesElement__covalent_radius_pyykko": [147.0, 85.0], "includesElement__covalent_radius_pyykko_double": [125.0, 78.0], "includesElement__covalent_radius_pyykko_triple": [116.0, 73.0], "includesElement__density": [8.57, 2.34], "includesElement__dipole_polarizability": [98.0, 20.5], "includesElement__dipole_polarizability_unc": [8.0, 0.1], "includesElement__discovery_year": [1801, 1808], "includesElement__electron_affinity": [0.917406, 0.279723], "includesElement__electronegativity_allred-rochow": [0.0001295756, 0.0003598616], "includesElement__electronegativity_cottrell-sutton": [0.1380131, 0.1748949], "includesElement__electronegativity_ghosh": [0.1280782, 0.184886], "includesElement__electronegativity_gordy": [0.01904762, 0.03058824], "includesElement__electronegativity_mulliken": [3.838128, 4.288871], "includesElement__electronegativity_nagle": [0.3708924, 0.5269739], "includesElement__electronegativity_pauling": [1.6, 2.04], "includesElement__electronegativity_sanderson": [0.5561695, 0.2546274], "includesElement__en_ghosh": [0.1280782, 0.184886], "includesElement__en_pauling": [1.6, 2.04], "includesElement__evaporation_heat": [680.0, 504.5], "includesElement__fusion_heat": [26.8, 23.6], "includesElement__glawe_number": [53, 86], "includesElement__group_id": [5, 13], "includesElement__heat_of_formation": [733.0, 565.0], "includesElement__is_radioactive": [false], "includesElement__lattice_constant": [3.3, 8.73], "includesElement__mendeleev_number": [48, 81], "includesElement__molar_heat_capacity": [24.6, 11.087], "includesElement__period": [5, 2], "includesElement__pettifor_number": [52, 86], "includesElement__specific_heat_capacity": [0.265, 1.026], "includesElement__vdw_radius": [218.0, 192.0], "includesElement__vdw_radius_alvarez": [256.0, 191.0], "includesElement__vdw_radius_mm3": [243.0, 215.0], "includesElement__vdw_radius_uff": [316.5, 408.3], "includesElement__abundance_sea": [1e-05, 4.44], "includesElement__atomic_weight_uncertainty": [2e-05], "includesElement__c6_gb": [1140.0, 99.2], "includesElement__electronegativity_allen": [8.34, 12.13], "includesElement__en_allen": [8.34, 12.13], "includesElement__metallic_radius": [134.0, 80.0], "includesElement__metallic_radius_c12": [146.0, 98.0], "includesElement__thermal_conductivity": [53.7, 27.4], "includesElement__vdw_radius_batsanov": [215.0, 180.0], "includesElement__is_monoisotopic": [true], "includesElement__c6": [99.5], "includesElement__vdw_radius_dreiding": [402.0], "includesElement__vdw_radius_truhlar": [192.0], "formula": ["B4Nb3"], "spacegroup": ["71"], "thermalConductivity": [38.7651], "icsd": ["656212"], "band_gap": [0.0], "density": [7.218088], "density_atomic": [10.5812], "deprecated": [false], "efermi": [7.463954], "energy_above_hull": [0.0], "energy_per_atom": [-15.58798], "formation_energy_per_atom": [-0.7897408], "homogeneous_poisson": [0.212], "is_gap_direct": [false], "is_magnetic": [false], "is_metal": [true], "is_stable": [true], "nelements": [2], "nsites": [7], "num_magnetic_sites": [0], "num_unique_magnetic_sites": [0], "theoretical": [false], "total_magnetization": [0.0], "total_magnetization_normalized_formula_units": [0.0], "total_magnetization_normalized_vol": [0.0], "uncorrected_energy_per_atom": [-15.58798], "universal_anisotropy": [0.103], "volume": [74.06842], "equilibrium_reaction_energy_per_atom": [-0.004467587]}