{"includesElement": ["", "La", "Au"], "includesElement___series_id": [9, 8], "includesElement__abundance_crust": [39.0, 0.004], "includesElement__atomic_number": [57, 79], "includesElement__atomic_radius": [195.0, 135.0], "includesElement__atomic_radius_rahm": [284.0, 226.0], "includesElement__atomic_volume": [22.5, 10.2], "includesElement__atomic_weight": [138.9055, 196.9666], "includesElement__covalent_radius_cordero": [207.0, 136.0], "includesElement__covalent_radius_pyykko": [180.0, 124.0], "includesElement__covalent_radius_pyykko_double": [139.0, 121.0], "includesElement__covalent_radius_pyykko_triple": [139.0, 123.0], "includesElement__density": [6.15, 19.3], "includesElement__dipole_polarizability": [215.0, 36.0], "includesElement__dipole_polarizability_unc": [20.0, 3.0], "includesElement__discovery_year": [1839], "includesElement__electron_affinity": [0.47, 2.30863], "includesElement__electronegativity_allred-rochow": [9.259259e-05, 0.0002406348], "includesElement__electronegativity_cottrell-sutton": [0.1290994, 0.1727388], "includesElement__electronegativity_ghosh": [0.163142, 0.26137], "includesElement__electronegativity_gordy": [0.01666667, 0.02983871], "includesElement__electronegativity_mulliken": [3.02345, 5.767091], "includesElement__electronegativity_nagle": [0.240747, 0.67354], "includesElement__electronegativity_pauling": [1.1, 2.4], "includesElement__electronegativity_sanderson": [0.3946505, 1.426701], "includesElement__en_ghosh": [0.163142, 0.26137], "includesElement__en_pauling": [1.1, 2.4], "includesElement__evaporation_heat": [402.0, 340.0], "includesElement__fusion_heat": [8.5, 12.68], "includesElement__glawe_number": [32, 66], "includesElement__group_id": [3, 11], "includesElement__heat_of_formation": [431.0, 368.2], "includesElement__is_radioactive": [false], "includesElement__lattice_constant": [3.75, 4.08], "includesElement__mendeleev_number": [13, 73], "includesElement__molar_heat_capacity": [27.11, 25.418], "includesElement__period": [6], "includesElement__pettifor_number": [33, 70], "includesElement__specific_heat_capacity": [0.195, 0.129], "includesElement__vdw_radius": [243.0, 214.0], "includesElement__vdw_radius_alvarez": [298.0, 232.0], "includesElement__vdw_radius_mm3": [278.0, 243.0], "includesElement__vdw_radius_uff": [352.2, 329.3], "includesElement__abundance_sea": [3.4e-06, 4e-06], "includesElement__atomic_weight_uncertainty": [7e-05, 5e-06], "includesElement__c6_gb": [3730.0, 427.0], "includesElement__metallic_radius": [169.0, 134.0], "includesElement__metallic_radius_c12": [187.0, 144.0], "includesElement__thermal_conductivity": [13.4, 318.0], "includesElement__vdw_radius_batsanov": [250.0, 210.0], "includesElement__gas_basicity": [991.9], "includesElement__proton_affinity": [1013.0], "includesElement__electronegativity_allen": [11.33], "includesElement__en_allen": [11.33], "includesElement__is_monoisotopic": [true], "formula": ["Au4La4"], "spacegroup": ["62"], "thermalConductivity": [0.591976], "icsd": ["612101"], "band_gap": [0.0], "density": [10.12631], "density_atomic": [27.53859], "deprecated": [false], "efermi": [7.104302], "energy_above_hull": [0.002857545], "energy_per_atom": [-4.926496], "formation_energy_per_atom": [-0.8215519], "is_gap_direct": [false], "is_magnetic": [false], "is_metal": [true], "is_stable": [false], "nelements": [2], "nsites": [8], "num_magnetic_sites": [0], "num_unique_magnetic_sites": [0], "theoretical": [false], "total_magnetization": [1e-07], "total_magnetization_normalized_formula_units": [2.5e-08], "total_magnetization_normalized_vol": [4.539085e-10], "uncorrected_energy_per_atom": [-41.08234], "volume": [220.3087]}