{"includesElement": ["", "Ge", "Ru"], "includesElement___series_id": [5, 8], "includesElement__abundance_crust": [1.5, 0.001], "includesElement__atomic_number": [32, 44], "includesElement__atomic_radius": [125.0, 130.0], "includesElement__atomic_radius_rahm": [234.0, 237.0], "includesElement__atomic_volume": [13.6, 8.3], "includesElement__atomic_weight": [72.63, 101.07], "includesElement__covalent_radius_cordero": [120.0, 146.0], "includesElement__covalent_radius_pyykko": [121.0, 125.0], "includesElement__covalent_radius_pyykko_double": [111.0, 114.0], "includesElement__covalent_radius_pyykko_triple": [114.0, 103.0], "includesElement__density": [5.3234, 12.1], "includesElement__dipole_polarizability": [40.0, 72.0], "includesElement__dipole_polarizability_unc": [1.0, 10.0], "includesElement__discovery_year": [1886, 1844], "includesElement__electron_affinity": [1.232712, 1.05], "includesElement__electronegativity_allred-rochow": [0.0003859026, 0.000208], "includesElement__electronegativity_cottrell-sutton": [0.2160884, 0.1612452], "includesElement__electronegativity_ghosh": [0.1895892, 0.1376494], "includesElement__electronegativity_gordy": [0.04669421, 0.026], "includesElement__electronegativity_mulliken": [4.566073, 4.20525], "includesElement__electronegativity_nagle": [0.4641589, 0.4807499], "includesElement__electronegativity_pauling": [2.01, 2.2], "includesElement__electronegativity_sanderson": [0.8001471, 0.9579373], "includesElement__en_ghosh": [0.1895892, 0.1376494], "includesElement__en_pauling": [2.01, 2.2], "includesElement__evaporation_heat": [328.0], "includesElement__fusion_heat": [36.8, 25.5], "includesElement__glawe_number": [84, 61], "includesElement__group_id": [14, 8], "includesElement__heat_of_formation": [372.0, 650.6], "includesElement__is_radioactive": [false], "includesElement__lattice_constant": [5.66, 2.7], "includesElement__mendeleev_number": [89, 60], "includesElement__molar_heat_capacity": [23.222, 24.06], "includesElement__period": [4, 5], "includesElement__pettifor_number": [84, 63], "includesElement__specific_heat_capacity": [0.32, 0.238], "includesElement__vdw_radius": [211.0, 213.0], "includesElement__vdw_radius_alvarez": [229.0, 246.0], "includesElement__vdw_radius_mm3": [244.0, 234.0], "includesElement__vdw_radius_uff": [428.0, 296.3], "includesElement__abundance_sea": [5e-05, 7e-07], "includesElement__atomic_weight_uncertainty": [0.008, 0.02], "includesElement__c6_gb": [365.0, 809.0], "includesElement__electronegativity_allen": [11.8, 9.1], "includesElement__en_allen": [11.8, 9.1], "includesElement__metallic_radius": [124.0, 125.0], "includesElement__metallic_radius_c12": [144.0, 134.0], "includesElement__thermal_conductivity": [60.2, 117.0], "includesElement__vdw_radius_batsanov": [210.0, 205.0], "includesElement__c6": [354.0], "includesElement__vdw_radius_dreiding": [427.0], "includesElement__vdw_radius_truhlar": [211.0], "includesElement__gas_basicity": [751.4], "includesElement__proton_affinity": [774.0], "formula": ["Ge4Ru4"], "spacegroup": ["198"], "thermalConductivity": [7.73882], "icsd": ["637744"], "band_gap": [0.1291], "density": [10.06782], "density_atomic": [14.32546], "deprecated": [false], "efermi": [8.501277], "energy_above_hull": [0.00656748], "energy_per_atom": [-19.91958], "formation_energy_per_atom": [-0.271321], "homogeneous_poisson": [0.301], "is_gap_direct": [false], "is_magnetic": [false], "is_metal": [false], "is_stable": [false], "nelements": [2], "nsites": [8], "num_magnetic_sites": [0], "num_unique_magnetic_sites": [0], "theoretical": [false], "total_magnetization": [0.0], "total_magnetization_normalized_formula_units": [0.0], "total_magnetization_normalized_vol": [0.0], "uncorrected_energy_per_atom": [-19.91958], "universal_anisotropy": [0.899], "volume": [114.6037], "cbm": [8.549], "vbm": [8.4199]}