{"includesElement": ["", "Sb", "Er", "Pt"], "includesElement___series_id": [5, 9, 8], "includesElement__abundance_crust": [0.2, 3.5, 0.005], "includesElement__atomic_number": [51, 68, 78], "includesElement__atomic_radius": [145.0, 175.0, 135.0], "includesElement__atomic_radius_rahm": [246.0, 272.0, 230.0], "includesElement__atomic_volume": [18.4, 9.1], "includesElement__atomic_weight": [121.76, 167.259, 195.084], "includesElement__covalent_radius_cordero": [139.0, 189.0, 136.0], "includesElement__covalent_radius_pyykko": [140.0, 165.0, 123.0], "includesElement__covalent_radius_pyykko_double": [133.0, 112.0], "includesElement__covalent_radius_pyykko_triple": [127.0, 110.0], "includesElement__density": [6.68, 9.07, 21.5], "includesElement__dipole_polarizability": [43.0, 150.0, 48.0], "includesElement__dipole_polarizability_unc": [2.0, 10.0, 4.0], "includesElement__electron_affinity": [1.046, 2.128], "includesElement__electronegativity_allred-rochow": [0.0003214286, 0.0001046832, 0.0002346487], "includesElement__electronegativity_cottrell-sutton": [0.212132, 0.1314257, 0.1698876], "includesElement__electronegativity_ghosh": [0.1918774, 0.212261, 0.25691], "includesElement__electronegativity_gordy": [0.045, 0.01727273, 0.02886179], "includesElement__electronegativity_mulliken": [4.827195, 3.05385, 5.543415], "includesElement__electronegativity_nagle": [0.4880907, 0.4536061, 0.5928156], "includesElement__electronegativity_pauling": [2.05, 1.24, 2.2], "includesElement__electronegativity_sanderson": [0.7762722, 0.5576573, 1.45101], "includesElement__en_ghosh": [0.1918774, 0.212261, 0.25691], "includesElement__en_pauling": [2.05, 1.24, 2.2], "includesElement__evaporation_heat": [195.2, 317.0, 470.0], "includesElement__fusion_heat": [20.08, 21.76], "includesElement__glawe_number": [91, 22, 64], "includesElement__group_id": [15, 10], "includesElement__heat_of_formation": [264.4, 316.4, 565.7], "includesElement__is_radioactive": [false], "includesElement__lattice_constant": [4.51, 3.56, 3.92], "includesElement__mendeleev_number": [96, 35, 69], "includesElement__molar_heat_capacity": [25.23, 28.12, 25.86], "includesElement__period": [5, 6], "includesElement__pettifor_number": [88, 23, 68], "includesElement__specific_heat_capacity": [0.207, 0.168, 0.133], "includesElement__vdw_radius": [206.0, 229.0, 213.0], "includesElement__vdw_radius_alvarez": [247.0, 283.0, 229.0], "includesElement__vdw_radius_mm3": [252.0, 267.0, 239.0], "includesElement__vdw_radius_uff": [442.0, 339.1, 275.4], "includesElement__abundance_sea": [0.00024, 8.7e-07], "includesElement__atomic_weight_uncertainty": [0.001, 0.003, 0.009], "includesElement__c6_gb": [504.0, 2150.0, 470.0], "includesElement__covalent_radius_bragg": [140.0], "includesElement__electronegativity_allen": [11.74, 10.16], "includesElement__en_allen": [11.74, 10.16], "includesElement__metallic_radius": [139.0, 130.0], "includesElement__metallic_radius_c12": [166.0, 139.0], "includesElement__thermal_conductivity": [24.43, 71.6], "includesElement__vdw_radius_batsanov": [220.0, 205.0], "includesElement__c6": [492.0], "includesElement__vdw_radius_dreiding": [435.0], "includesElement__vdw_radius_truhlar": [206.0], "includesElement__discovery_year": [1843, 1735], "formula": ["Er1Pt1Sb1", "ErSbPt"], "mp_id": ["16329"], "spacegroup": ["216"], "thermalConductivity": [5.821, 5.41], "icsd": ["53409"], "band_gap": [0.0], "density": [11.53837], "density_atomic": [23.22314], "deprecated": [false], "efermi": [6.290527], "energy_above_hull": [0.0], "energy_per_atom": [-38.4171], "formation_energy_per_atom": [-1.377277], "homogeneous_poisson": [0.292], "is_gap_direct": [false], "is_magnetic": [false], "is_metal": [true], "is_stable": [true], "nelements": [3], "nsites": [3], "num_magnetic_sites": [0], "num_unique_magnetic_sites": [0], "theoretical": [false], "total_magnetization": [0.0], "total_magnetization_normalized_formula_units": [0.0], "total_magnetization_normalized_vol": [0.0], "uncorrected_energy_per_atom": [-38.4171], "universal_anisotropy": [0.017], "volume": [69.66943], "e_electronic": [26.09963], "e_ionic": [1.269892], "e_total": [27.36952], "equilibrium_reaction_energy_per_atom": [-0.2396153], "n": [5.10878], "e_ij_max": [0.35321]}