{"includesElement": ["", "Mg", "La"], "includesElement___series_id": [4, 9], "includesElement__abundance_crust": [23300.0, 39.0], "includesElement__atomic_number": [12, 57], "includesElement__atomic_radius": [150.0, 195.0], "includesElement__atomic_radius_rahm": [240.0, 284.0], "includesElement__atomic_volume": [14.0, 22.5], "includesElement__atomic_weight": [24.305, 138.9055], "includesElement__covalent_radius_cordero": [141.0, 207.0], "includesElement__covalent_radius_pyykko": [139.0, 180.0], "includesElement__covalent_radius_pyykko_double": [132.0, 139.0], "includesElement__covalent_radius_pyykko_triple": [127.0, 139.0], "includesElement__density": [1.74, 6.15], "includesElement__dipole_polarizability": [71.2, 215.0], "includesElement__dipole_polarizability_unc": [0.4, 20.0], "includesElement__discovery_year": [1808, 1839], "includesElement__electronegativity_allred-rochow": [0.0001475079, 9.259259e-05], "includesElement__electronegativity_cottrell-sutton": [0.1431908, 0.1290994], "includesElement__electronegativity_ghosh": [0.121644, 0.163142], "includesElement__electronegativity_gordy": [0.0205036, 0.01666667], "includesElement__electronegativity_mulliken": [3.823117, 3.02345], "includesElement__electronegativity_nagle": [0.3039835, 0.240747], "includesElement__electronegativity_pauling": [1.31, 1.1], "includesElement__electronegativity_sanderson": [0.1524211, 0.3946505], "includesElement__en_ghosh": [0.121644, 0.163142], "includesElement__en_pauling": [1.31, 1.1], "includesElement__evaporation_heat": [131.8, 402.0], "includesElement__fusion_heat": [9.2, 8.5], "includesElement__glawe_number": [73, 32], "includesElement__group_id": [2, 3], "includesElement__heat_of_formation": [147.1, 431.0], "includesElement__is_radioactive": [false], "includesElement__lattice_constant": [3.21, 3.75], "includesElement__mendeleev_number": [76, 13], "includesElement__molar_heat_capacity": [24.869, 27.11], "includesElement__period": [3, 6], "includesElement__pettifor_number": [73, 33], "includesElement__specific_heat_capacity": [1.023, 0.195], "includesElement__vdw_radius": [173.0, 243.0], "includesElement__vdw_radius_alvarez": [251.0, 298.0], "includesElement__vdw_radius_mm3": [243.0, 278.0], "includesElement__vdw_radius_uff": [302.1, 352.2], "includesElement__abundance_sea": [1290.0, 3.4e-06], "includesElement__c6_gb": [629.0, 3730.0], "includesElement__covalent_radius_bragg": [142.0], "includesElement__electronegativity_allen": [7.646], "includesElement__en_allen": [7.646], "includesElement__metallic_radius": [136.0, 169.0], "includesElement__metallic_radius_c12": [160.0, 187.0], "includesElement__thermal_conductivity": [156.0, 13.4], "includesElement__vdw_radius_batsanov": [220.0, 250.0], "includesElement__c6": [626.0], "includesElement__gas_basicity": [797.3, 991.9], "includesElement__proton_affinity": [819.6, 1013.0], "includesElement__vdw_radius_bondi": [173.0], "includesElement__electron_affinity": [0.47], "includesElement__atomic_weight_uncertainty": [7e-05], "formula": ["La1Mg1"], "spacegroup": ["221"], "thermalConductivity": [8.27996], "icsd": ["104658"], "band_gap": [0.0], "density": [4.306863], "density_atomic": [31.46343], "deprecated": [false], "efermi": [5.222061], "energy_above_hull": [0.005696518], "energy_per_atom": [-3.378346], "formation_energy_per_atom": [-0.09510729], "homogeneous_poisson": [0.239], "is_gap_direct": [false], "is_magnetic": [false], "is_metal": [true], "is_stable": [false], "nelements": [2], "nsites": [2], "num_magnetic_sites": [0], "num_unique_magnetic_sites": [0], "theoretical": [false], "total_magnetization": [0.0007751], "total_magnetization_normalized_formula_units": [0.0007751], "total_magnetization_normalized_vol": [1.231747e-05], "uncorrected_energy_per_atom": [-17.06518], "universal_anisotropy": [2.084], "volume": [62.92686]}