{"includesElement": ["", "Ni", "Ta", "C"], "includesElement___series_id": [8, 1], "includesElement__abundance_crust": [84.0, 2.0, 200.0], "includesElement__atomic_number": [28, 73, 6], "includesElement__atomic_radius": [135.0, 145.0, 70.0], "includesElement__atomic_radius_rahm": [229.0, 258.0, 190.0], "includesElement__atomic_volume": [6.6, 10.9, 5.3], "includesElement__atomic_weight": [58.6934, 180.9479, 12.011], "includesElement__covalent_radius_cordero": [124.0, 170.0, 73.0], "includesElement__covalent_radius_pyykko": [110.0, 146.0, 75.0], "includesElement__covalent_radius_pyykko_double": [101.0, 126.0, 67.0], "includesElement__covalent_radius_pyykko_triple": [101.0, 119.0, 60.0], "includesElement__density": [8.9, 16.4, 2.2], "includesElement__dipole_polarizability": [49.0, 74.0, 11.3], "includesElement__dipole_polarizability_unc": [3.0, 20.0, 0.2], "includesElement__discovery_year": [1751, 1802], "includesElement__electron_affinity": [1.156, 0.322, 1.262119], "includesElement__electronegativity_allred-rochow": [0.0003347107, 0.0001548133, 0.0005777778], "includesElement__electronegativity_cottrell-sutton": [0.1918806, 0.1503421, 0.2081666], "includesElement__electronegativity_ghosh": [0.1472068, 0.234581, 0.224776], "includesElement__electronegativity_gordy": [0.03681818, 0.02260274, 0.04333333], "includesElement__electronegativity_mulliken": [4.397939, 3.935785, 6.261208], "includesElement__electronegativity_nagle": [0.588755, 0.4072985, 0.7073926], "includesElement__electronegativity_pauling": [1.91, 1.5, 2.55], "includesElement__electronegativity_sanderson": [0.937704, 0.8358832, 0.427525], "includesElement__en_ghosh": [0.1472068, 0.234581, 0.224776], "includesElement__en_pauling": [1.91, 1.5, 2.55], "includesElement__evaporation_heat": [378.6, 758.0], "includesElement__fusion_heat": [17.61, 24.7], "includesElement__glawe_number": [69, 52, 87], "includesElement__group_id": [10, 5, 14], "includesElement__heat_of_formation": [430.1, 782.0, 716.87], "includesElement__is_radioactive": [false], "includesElement__lattice_constant": [3.52, 3.31, 3.57], "includesElement__mendeleev_number": [67, 49, 87], "includesElement__molar_heat_capacity": [26.07, 25.36, 8.517], "includesElement__period": [4, 6, 2], "includesElement__pettifor_number": [67, 53, 95], "includesElement__specific_heat_capacity": [0.444, 0.14, 0.709], "includesElement__vdw_radius": [197.0, 222.0, 170.0], "includesElement__vdw_radius_alvarez": [240.0, 253.0, 177.0], "includesElement__vdw_radius_mm3": [222.0, 243.0, 204.0], "includesElement__vdw_radius_uff": [283.4, 317.0, 385.1], "includesElement__abundance_sea": [0.00056, 2e-06, 28.0], "includesElement__atomic_weight_uncertainty": [0.0004, 2e-05], "includesElement__c6_gb": [393.0, 887.0, 47.9], "includesElement__covalent_radius_bragg": [135.0, 77.0], "includesElement__electronegativity_allen": [11.13, 7.93, 15.05], "includesElement__en_allen": [11.13, 7.93, 15.05], "includesElement__metallic_radius": [115.0, 134.0], "includesElement__metallic_radius_c12": [124.0, 146.0, 86.0], "includesElement__thermal_conductivity": [90.9, 57.5, 1.59], "includesElement__vdw_radius_batsanov": [200.0, 220.0, 170.0], "includesElement__c6": [373.0, 46.6], "includesElement__gas_basicity": [714.1], "includesElement__proton_affinity": [737.0], "includesElement__vdw_radius_dreiding": [389.83], "includesElement__vdw_radius_bondi": [170.0], "includesElement__vdw_radius_rt": [177.0], "formula": ["C4Ni8Ta16"], "spacegroup": ["227"], "thermalConductivity": [4.62983], "icsd": ["618567"], "band_gap": [0.0], "density": [14.43384], "density_atomic": [14.02214], "deprecated": [false], "efermi": [6.508836], "energy_above_hull": [0.0], "energy_per_atom": [-10.1741], "formation_energy_per_atom": [-0.4231531], "is_gap_direct": [false], "is_magnetic": [false], "is_metal": [true], "is_stable": [true], "nelements": [3], "nsites": [28], "num_magnetic_sites": [0], "num_unique_magnetic_sites": [0], "theoretical": [false], "total_magnetization": [3.01e-05], "total_magnetization_normalized_formula_units": [7.525e-06], "total_magnetization_normalized_vol": [7.666447e-08], "uncorrected_energy_per_atom": [-33.06218], "volume": [392.62], "equilibrium_reaction_energy_per_atom": [-0.00935057]}