{"includesElement": ["", "H", "Pu"], "includesElement___series_id": [1, 10], "includesElement__abundance_crust": [1400.0], "includesElement__atomic_number": [1, 94], "includesElement__atomic_radius": [25.0, 175.0], "includesElement__atomic_radius_rahm": [154.0, 278.0], "includesElement__atomic_volume": [14.1], "includesElement__atomic_weight": [1.008, 244.0], "includesElement__covalent_radius_cordero": [31.0, 187.0], "includesElement__covalent_radius_pyykko": [32.0, 172.0], "includesElement__density": [8.2e-05, 19.7], "includesElement__dipole_polarizability": [4.50711, 132.0], "includesElement__dipole_polarizability_unc": [3e-05, 20.0], "includesElement__discovery_year": [1766, 1940], "includesElement__electron_affinity": [0.754195], "includesElement__electronegativity_allred-rochow": [0.0009765625, 9.633586e-05], "includesElement__electronegativity_cottrell-sutton": [0.1767767, 0.1287236], "includesElement__electronegativity_ghosh": [0.2638, 0.16137], "includesElement__electronegativity_gordy": [0.03125, 0.01656977], "includesElement__electronegativity_mulliken": [7.176315, 3.0129], "includesElement__electronegativity_nagle": [0.6053882, 0.3928005], "includesElement__electronegativity_pauling": [2.2, 1.3], "includesElement__electronegativity_sanderson": [2.187771, 0.6084717], "includesElement__en_ghosh": [0.2638, 0.16137], "includesElement__en_pauling": [2.2, 1.3], "includesElement__evaporation_heat": [0.904, 343.5], "includesElement__fusion_heat": [0.117, 2.8], "includesElement__glawe_number": [103, 38], "includesElement__group_id": [1], "includesElement__heat_of_formation": [217.998, 345.0], "includesElement__is_radioactive": [false, true], "includesElement__lattice_constant": [3.75], "includesElement__mendeleev_number": [105, 24], "includesElement__molar_heat_capacity": [28.836], "includesElement__period": [1, 7], "includesElement__pettifor_number": [103, 43], "includesElement__specific_heat_capacity": [14.304], "includesElement__vdw_radius": [110.0, 243.0], "includesElement__vdw_radius_alvarez": [120.0, 281.0], "includesElement__vdw_radius_mm3": [162.0, 252.0], "includesElement__vdw_radius_uff": [288.6, 342.4], "includesElement__abundance_sea": [108000.0], "includesElement__c6_gb": [6.51], "includesElement__electronegativity_allen": [13.61], "includesElement__en_allen": [13.61], "includesElement__metallic_radius_c12": [78.0], "includesElement__thermal_conductivity": [0.1815], "includesElement__c6": [6.499027], "includesElement__vdw_radius_dreiding": [319.5], "includesElement__vdw_radius_bondi": [120.0], "includesElement__vdw_radius_rt": [110.0], "includesElement__covalent_radius_pyykko_double": [135.0], "formula": ["H2Pu1"], "spacegroup": ["225"], "thermalConductivity": [2.38881], "icsd": ["56082"], "band_gap": [0.0], "density": [10.61095], "density_atomic": [12.83326], "deprecated": [false], "efermi": [8.144334], "energy_above_hull": [0.0], "energy_per_atom": [-31.69468], "formation_energy_per_atom": [-0.6058255], "is_gap_direct": [false], "is_magnetic": [true], "is_metal": [true], "is_stable": [true], "nelements": [2], "nsites": [3], "num_magnetic_sites": [1], "num_unique_magnetic_sites": [1], "theoretical": [false], "total_magnetization": [5.643826], "total_magnetization_normalized_formula_units": [5.643826], "total_magnetization_normalized_vol": [0.1465937], "uncorrected_energy_per_atom": [-31.69468], "volume": [38.49977], "equilibrium_reaction_energy_per_atom": [-0.05794132]}