{"includesElement": ["", "Ge", "Tb", "Rh"], "includesElement___series_id": [5, 9, 8], "includesElement__abundance_crust": [1.5, 1.2, 0.001], "includesElement__atomic_number": [32, 65, 45], "includesElement__atomic_radius": [125.0, 175.0, 135.0], "includesElement__atomic_radius_rahm": [234.0, 276.0, 233.0], "includesElement__atomic_volume": [13.6, 19.2, 8.3], "includesElement__atomic_weight": [72.63, 158.9254, 102.9055], "includesElement__covalent_radius_cordero": [120.0, 194.0, 142.0], "includesElement__covalent_radius_pyykko": [121.0, 168.0, 125.0], "includesElement__covalent_radius_pyykko_double": [111.0, 135.0, 110.0], "includesElement__covalent_radius_pyykko_triple": [114.0, 106.0], "includesElement__density": [5.3234, 8.23, 12.4], "includesElement__dipole_polarizability": [40.0, 170.0, 66.0], "includesElement__dipole_polarizability_unc": [1.0, 20.0, 10.0], "includesElement__discovery_year": [1886, 1843, 1803], "includesElement__electron_affinity": [1.232712, 1.165, 1.137], "includesElement__electronegativity_allred-rochow": [0.0003859026, 0.0001009779, 0.0002176], "includesElement__electronegativity_cottrell-sutton": [0.2160884, 0.130247, 0.1649242], "includesElement__electronegativity_ghosh": [0.1895892, 0.198863, 0.1408379], "includesElement__electronegativity_gordy": [0.04669421, 0.01696429, 0.0272], "includesElement__electronegativity_mulliken": [4.566073, 3.5144, 4.29795], "includesElement__electronegativity_nagle": [0.4641589, 0.4014652, 0.5147142], "includesElement__electronegativity_pauling": [2.01, 2.28], "includesElement__electronegativity_sanderson": [0.8001471, 0.5163695, 0.9761915], "includesElement__en_ghosh": [0.1895892, 0.198863, 0.1408379], "includesElement__en_pauling": [2.01, 2.28], "includesElement__evaporation_heat": [328.0, 389.0, 494.0], "includesElement__fusion_heat": [36.8, 21.8], "includesElement__glawe_number": [84, 25, 63], "includesElement__group_id": [14, 9], "includesElement__heat_of_formation": [372.0, 388.7, 556.0], "includesElement__is_radioactive": [false], "includesElement__lattice_constant": [5.66, 3.6, 3.8], "includesElement__mendeleev_number": [89, 29, 64], "includesElement__molar_heat_capacity": [23.222, 28.91, 24.98], "includesElement__period": [4, 6, 5], "includesElement__pettifor_number": [84, 26, 66], "includesElement__specific_heat_capacity": [0.32, 0.182, 0.243], "includesElement__vdw_radius": [211.0, 233.0, 210.0], "includesElement__vdw_radius_alvarez": [229.0, 279.0, 244.0], "includesElement__vdw_radius_mm3": [244.0, 270.0, 234.0], "includesElement__vdw_radius_uff": [428.0, 345.1, 292.9], "includesElement__abundance_sea": [5e-05, 1.4e-07], "includesElement__atomic_weight_uncertainty": [0.008, 2e-05], "includesElement__c6_gb": [365.0, 2590.0, 708.0], "includesElement__electronegativity_allen": [11.8, 9.259], "includesElement__en_allen": [11.8, 9.259], "includesElement__metallic_radius": [124.0, 125.0], "includesElement__metallic_radius_c12": [144.0, 134.0], "includesElement__thermal_conductivity": [60.2, 11.1, 150.0], "includesElement__vdw_radius_batsanov": [210.0, 200.0], "includesElement__c6": [354.0], "includesElement__vdw_radius_dreiding": [427.0], "includesElement__vdw_radius_truhlar": [211.0], "includesElement__is_monoisotopic": [true], "includesElement__gas_basicity": [745.4], "includesElement__proton_affinity": [768.0], "formula": ["Ge2Rh2Tb1"], "spacegroup": ["139"], "thermalConductivity": [7.00957], "icsd": ["53893"], "band_gap": [0.0], "density": [9.726757], "density_atomic": [17.41386], "deprecated": [false], "efermi": [6.386766], "energy_above_hull": [0.0], "energy_per_atom": [-6.610905], "formation_energy_per_atom": [-0.8883981], "is_gap_direct": [false], "is_magnetic": [false], "is_metal": [true], "is_stable": [true], "nelements": [3], "nsites": [5], "num_magnetic_sites": [0], "num_unique_magnetic_sites": [0], "theoretical": [false], "total_magnetization": [4e-07], "total_magnetization_normalized_formula_units": [4e-07], "total_magnetization_normalized_vol": [4.594041e-09], "uncorrected_energy_per_atom": [-22.42043], "volume": [87.06932], "equilibrium_reaction_energy_per_atom": [-0.08816293]}