{"includesElement": ["", "Bi", "Au"], "includesElement___series_id": [7, 8], "includesElement__abundance_crust": [0.0085, 0.004], "includesElement__atomic_number": [83, 79], "includesElement__atomic_radius": [160.0, 135.0], "includesElement__atomic_radius_rahm": [250.0, 226.0], "includesElement__atomic_volume": [21.3, 10.2], "includesElement__atomic_weight": [208.9804, 196.9666], "includesElement__covalent_radius_cordero": [148.0, 136.0], "includesElement__covalent_radius_pyykko": [151.0, 124.0], "includesElement__covalent_radius_pyykko_double": [141.0, 121.0], "includesElement__covalent_radius_pyykko_triple": [135.0, 123.0], "includesElement__density": [9.79, 19.3], "includesElement__dipole_polarizability": [48.0, 36.0], "includesElement__dipole_polarizability_unc": [4.0, 3.0], "includesElement__electron_affinity": [0.942362, 2.30863], "includesElement__electronegativity_allred-rochow": [0.0002763037, 0.0002406348], "includesElement__electronegativity_cottrell-sutton": [0.2042593, 0.1727388], "includesElement__electronegativity_ghosh": [0.182377, 0.26137], "includesElement__electronegativity_gordy": [0.04172185, 0.02983871], "includesElement__electronegativity_mulliken": [4.113939, 5.767091], "includesElement__electronegativity_nagle": [0.470518, 0.67354], "includesElement__electronegativity_pauling": [1.9, 2.4], "includesElement__electronegativity_sanderson": [0.8136501, 1.426701], "includesElement__en_ghosh": [0.182377, 0.26137], "includesElement__en_pauling": [1.9, 2.4], "includesElement__evaporation_heat": [172.0, 340.0], "includesElement__fusion_heat": [11.0, 12.68], "includesElement__glawe_number": [92, 66], "includesElement__group_id": [15, 11], "includesElement__heat_of_formation": [209.6, 368.2], "includesElement__is_radioactive": [false], "includesElement__lattice_constant": [4.75, 4.08], "includesElement__mendeleev_number": [97, 73], "includesElement__molar_heat_capacity": [25.52, 25.418], "includesElement__period": [6], "includesElement__pettifor_number": [87, 70], "includesElement__specific_heat_capacity": [0.122, 0.129], "includesElement__vdw_radius": [207.0, 214.0], "includesElement__vdw_radius_alvarez": [254.0, 232.0], "includesElement__vdw_radius_mm3": [266.0, 243.0], "includesElement__vdw_radius_uff": [437.0, 329.3], "includesElement__abundance_sea": [2e-05, 4e-06], "includesElement__atomic_weight_uncertainty": [1e-05, 5e-06], "includesElement__c6_gb": [513.0, 427.0], "includesElement__covalent_radius_bragg": [148.0], "includesElement__electronegativity_allen": [11.9, 11.33], "includesElement__en_allen": [11.9, 11.33], "includesElement__metallic_radius": [151.0, 134.0], "includesElement__metallic_radius_c12": [178.0, 144.0], "includesElement__thermal_conductivity": [7.9, 318.0], "includesElement__vdw_radius_batsanov": [230.0, 210.0], "includesElement__is_monoisotopic": [true], "includesElement__vdw_radius_truhlar": [207.0], "formula": ["Au4Bi2"], "spacegroup": ["227"], "thermalConductivity": [0.848172], "icsd": ["52284"], "band_gap": [0.0], "density": [15.48884], "density_atomic": [21.54587], "deprecated": [false], "efermi": [5.943776], "energy_above_hull": [0.0], "energy_per_atom": [-3.526544], "formation_energy_per_atom": [-0.06379266], "homogeneous_poisson": [0.39], "is_gap_direct": [false], "is_magnetic": [false], "is_metal": [true], "is_stable": [true], "nelements": [2], "nsites": [6], "num_magnetic_sites": [0], "num_unique_magnetic_sites": [0], "theoretical": [false], "total_magnetization": [0.0], "total_magnetization_normalized_formula_units": [0.0], "total_magnetization_normalized_vol": [0.0], "uncorrected_energy_per_atom": [-53.22316], "universal_anisotropy": [0.179], "volume": [129.2752], "equilibrium_reaction_energy_per_atom": [-0.06379266]}