{"includesElement": ["", "Mg", "Dy"], "includesElement___series_id": [4, 9], "includesElement__abundance_crust": [23300.0, 5.2], "includesElement__atomic_number": [12, 66], "includesElement__atomic_radius": [150.0, 175.0], "includesElement__atomic_radius_rahm": [240.0, 275.0], "includesElement__atomic_volume": [14.0, 19.0], "includesElement__atomic_weight": [24.305, 162.5], "includesElement__covalent_radius_cordero": [141.0, 192.0], "includesElement__covalent_radius_pyykko": [139.0, 167.0], "includesElement__covalent_radius_pyykko_double": [132.0, 133.0], "includesElement__covalent_radius_pyykko_triple": [127.0], "includesElement__density": [1.74, 8.55], "includesElement__dipole_polarizability": [71.2, 163.0], "includesElement__dipole_polarizability_unc": [0.4, 15.0], "includesElement__discovery_year": [1808, 1886], "includesElement__electronegativity_allred-rochow": [0.0001475079, 0.0001021908], "includesElement__electronegativity_cottrell-sutton": [0.1431908, 0.1306364], "includesElement__electronegativity_ghosh": [0.121644, 0.20333], "includesElement__electronegativity_gordy": [0.0205036, 0.01706587], "includesElement__electronegativity_mulliken": [3.823117, 3.145525], "includesElement__electronegativity_nagle": [0.3039835, 0.4191131], "includesElement__electronegativity_pauling": [1.31, 1.22], "includesElement__electronegativity_sanderson": [0.1524211, 0.5297338], "includesElement__en_ghosh": [0.121644, 0.20333], "includesElement__en_pauling": [1.31, 1.22], "includesElement__evaporation_heat": [131.8, 291.0], "includesElement__fusion_heat": [9.2], "includesElement__glawe_number": [73, 24], "includesElement__group_id": [2], "includesElement__heat_of_formation": [147.1, 290.4], "includesElement__is_radioactive": [false], "includesElement__lattice_constant": [3.21, 3.59], "includesElement__mendeleev_number": [76, 31], "includesElement__molar_heat_capacity": [24.869, 28.16], "includesElement__period": [3, 6], "includesElement__pettifor_number": [73, 25], "includesElement__specific_heat_capacity": [1.023, 0.173], "includesElement__vdw_radius": [173.0, 231.0], "includesElement__vdw_radius_alvarez": [251.0, 287.0], "includesElement__vdw_radius_mm3": [243.0, 290.0], "includesElement__vdw_radius_uff": [302.1, 342.8], "includesElement__abundance_sea": [1290.0, 9.1e-07], "includesElement__c6_gb": [629.0, 2430.0], "includesElement__covalent_radius_bragg": [142.0], "includesElement__electronegativity_allen": [7.646], "includesElement__en_allen": [7.646], "includesElement__metallic_radius": [136.0], "includesElement__metallic_radius_c12": [160.0], "includesElement__thermal_conductivity": [156.0, 10.7], "includesElement__vdw_radius_batsanov": [220.0], "includesElement__c6": [626.0], "includesElement__gas_basicity": [797.3], "includesElement__proton_affinity": [819.6], "includesElement__vdw_radius_bondi": [173.0], "includesElement__electron_affinity": [0.352], "includesElement__atomic_weight_uncertainty": [0.001], "formula": ["Dy1Mg1"], "spacegroup": ["221"], "thermalConductivity": [6.22953], "icsd": ["103129"], "band_gap": [0.0], "density": [5.730207], "density_atomic": [27.06682], "deprecated": [false], "efermi": [3.162402], "energy_above_hull": [0.0], "energy_per_atom": [-3.183299], "formation_energy_per_atom": [-0.05887659], "homogeneous_poisson": [0.297], "is_gap_direct": [false], "is_magnetic": [false], "is_metal": [true], "is_stable": [true], "nelements": [2], "nsites": [2], "num_magnetic_sites": [0], "num_unique_magnetic_sites": [0], "theoretical": [false], "total_magnetization": [0.0], "total_magnetization_normalized_formula_units": [0.0], "total_magnetization_normalized_vol": [0.0], "uncorrected_energy_per_atom": [-18.17161], "universal_anisotropy": [4.153], "volume": [54.13365], "cbm": [3.1423], "equilibrium_reaction_energy_per_atom": [-0.02621078], "vbm": [3.1705]}