{"includesElement": ["", "Si", "O", "Zr"], "includesElement___series_id": [5, 1, 8], "includesElement__abundance_crust": [282000.0, 461000.0, 165.0], "includesElement__atomic_number": [14, 8, 40], "includesElement__atomic_radius": [110.0, 60.0, 155.0], "includesElement__atomic_radius_rahm": [232.0, 171.0, 269.0], "includesElement__atomic_volume": [12.1, 14.0, 14.1], "includesElement__atomic_weight": [28.085, 15.999, 91.224], "includesElement__covalent_radius_cordero": [111.0, 66.0, 175.0], "includesElement__covalent_radius_pyykko": [116.0, 63.0, 154.0], "includesElement__covalent_radius_pyykko_double": [107.0, 57.0, 127.0], "includesElement__covalent_radius_pyykko_triple": [102.0, 53.0, 121.0], "includesElement__density": [2.3296, 0.001308, 6.52], "includesElement__dipole_polarizability": [37.3, 5.3, 112.0], "includesElement__dipole_polarizability_unc": [0.7, 0.2, 13.0], "includesElement__discovery_year": [1824, 1774, 1789], "includesElement__electron_affinity": [1.389521, 1.461113, 0.426], "includesElement__electronegativity_allred-rochow": [0.0003084126, 0.001146384, 0.0001328217], "includesElement__electronegativity_cottrell-sutton": [0.1891451, 0.2687419, 0.1430194], "includesElement__electronegativity_ghosh": [0.178503, 0.304575, 0.1248887], "includesElement__electronegativity_gordy": [0.03577586, 0.07222222, 0.02045455], "includesElement__electronegativity_mulliken": [4.770602, 7.539584, 3.52995], "includesElement__electronegativity_nagle": [0.4750986, 1.042218, 0.3293169], "includesElement__electronegativity_pauling": [1.9, 3.44, 1.33], "includesElement__electronegativity_sanderson": [0.3468158, 0.9416494, 0.4744467], "includesElement__en_ghosh": [0.178503, 0.304575, 0.1248887], "includesElement__en_pauling": [1.9, 3.44, 1.33], "includesElement__evaporation_heat": [383.0, 567.0], "includesElement__fusion_heat": [50.6, 19.2], "includesElement__glawe_number": [85, 97, 49], "includesElement__group_id": [14, 16, 4], "includesElement__heat_of_formation": [450.0, 249.229, 610.0], "includesElement__is_radioactive": [false], "includesElement__lattice_constant": [5.43, 6.83, 3.23], "includesElement__mendeleev_number": [88, 99, 44], "includesElement__molar_heat_capacity": [19.99, 29.378, 25.36], "includesElement__period": [3, 2, 5], "includesElement__pettifor_number": [85, 101, 49], "includesElement__specific_heat_capacity": [0.712, 0.918, 0.278], "includesElement__vdw_radius": [210.0, 152.0, 223.0], "includesElement__vdw_radius_alvarez": [219.0, 150.0, 252.0], "includesElement__vdw_radius_mm3": [229.0, 182.0, 254.0], "includesElement__vdw_radius_uff": [429.5, 350.0, 312.4], "includesElement__abundance_sea": [2.2, 857000.0, 3e-05], "includesElement__c6_gb": [308.0, 16.7, 1360.0], "includesElement__covalent_radius_bragg": [117.0, 65.0], "includesElement__electronegativity_allen": [11.33, 21.36, 7.808], "includesElement__en_allen": [11.33, 21.36, 7.808], "includesElement__metallic_radius": [117.0, 145.0], "includesElement__metallic_radius_c12": [138.0, 160.0], "includesElement__thermal_conductivity": [149.0, 0.027, 22.7], "includesElement__vdw_radius_batsanov": [210.0, 155.0, 230.0], "includesElement__c6": [305.0, 15.6], "includesElement__vdw_radius_dreiding": [427.0, 340.46], "includesElement__gas_basicity": [814.1, 459.6], "includesElement__proton_affinity": [837.0, 485.2], "includesElement__vdw_radius_bondi": [210.0, 152.0], "includesElement__vdw_radius_rt": [158.0], "includesElement__atomic_weight_uncertainty": [0.002], "formula": ["O8Si2Zr2"], "spacegroup": ["88"], "thermalConductivity": [11.5675], "icsd": ["186167"], "band_gap": [4.0001], "density": [4.986628], "density_atomic": [10.17349], "deprecated": [false], "efermi": [4.338134], "energy_above_hull": [0.07960621], "energy_per_atom": [-12.60402], "formation_energy_per_atom": [-3.37633], "homogeneous_poisson": [0.301], "is_gap_direct": [false], "is_magnetic": [false], "is_metal": [false], "is_stable": [false], "nelements": [3], "nsites": [12], "num_magnetic_sites": [0], "num_unique_magnetic_sites": [0], "theoretical": [true], "total_magnetization": [0.0], "total_magnetization_normalized_formula_units": [0.0], "total_magnetization_normalized_vol": [0.0], "uncorrected_energy_per_atom": [-8.648631], "universal_anisotropy": [0.303], "volume": [122.0819], "cbm": [8.3334], "vbm": [4.3333]}