{"includesElement": ["", "Tl", "Pd"], "includesElement___series_id": [7, 8], "includesElement__abundance_crust": [0.85, 0.015], "includesElement__atomic_number": [81, 46], "includesElement__atomic_radius": [190.0, 140.0], "includesElement__atomic_radius_rahm": [242.0, 215.0], "includesElement__atomic_volume": [17.2, 8.9], "includesElement__atomic_weight": [204.38, 106.42], "includesElement__covalent_radius_cordero": [145.0, 139.0], "includesElement__covalent_radius_pyykko": [144.0, 120.0], "includesElement__covalent_radius_pyykko_double": [142.0, 117.0], "includesElement__covalent_radius_pyykko_triple": [150.0, 112.0], "includesElement__density": [11.8, 12.0], "includesElement__dipole_polarizability": [50.0, 26.14], "includesElement__dipole_polarizability_unc": [2.0, 0.1], "includesElement__discovery_year": [1861, 1803], "includesElement__electron_affinity": [0.377, 0.562], "includesElement__electronegativity_allred-rochow": [0.0002411265, 0.0004756944], "includesElement__electronegativity_cottrell-sutton": [0.186339, 0.2389212], "includesElement__electronegativity_ghosh": [0.173447, 0.1440276], "includesElement__electronegativity_gordy": [0.03472222, 0.05708333], "includesElement__electronegativity_mulliken": [3.242643, 4.44943], "includesElement__electronegativity_nagle": [0.3914868, 0.7259357], "includesElement__electronegativity_pauling": [1.8, 2.2], "includesElement__electronegativity_sanderson": [0.9245096, 1.124263], "includesElement__en_ghosh": [0.173447, 0.1440276], "includesElement__en_pauling": [1.8, 2.2], "includesElement__evaporation_heat": [162.4, 372.4], "includesElement__fusion_heat": [4.31, 17.24], "includesElement__glawe_number": [81, 65], "includesElement__group_id": [13, 10], "includesElement__heat_of_formation": [182.2, 376.6], "includesElement__is_radioactive": [false], "includesElement__lattice_constant": [3.46, 3.89], "includesElement__mendeleev_number": [85, 68], "includesElement__molar_heat_capacity": [26.32, 25.98], "includesElement__period": [6, 5], "includesElement__pettifor_number": [78, 69], "includesElement__specific_heat_capacity": [0.129, 0.246], "includesElement__vdw_radius": [196.0, 210.0], "includesElement__vdw_radius_alvarez": [247.0, 215.0], "includesElement__vdw_radius_mm3": [259.0, 237.0], "includesElement__vdw_radius_uff": [434.7, 289.9], "includesElement__abundance_sea": [1.9e-05], "includesElement__c6_gb": [509.0, 628.0], "includesElement__covalent_radius_bragg": [190.0], "includesElement__metallic_radius": [144.0, 128.0], "includesElement__metallic_radius_c12": [160.0, 137.0], "includesElement__thermal_conductivity": [46.1, 71.8], "includesElement__vdw_radius_batsanov": [220.0, 205.0], "includesElement__vdw_radius_bondi": [196.0], "includesElement__atomic_weight_uncertainty": [0.01], "includesElement__electronegativity_allen": [9.402], "includesElement__en_allen": [9.402], "includesElement__gas_basicity": [673.4], "includesElement__proton_affinity": [696.0], "formula": ["Pd3Tl1"], "spacegroup": ["139"], "thermalConductivity": [1.70548], "icsd": ["105729"], "band_gap": [0.0], "density": [13.10504], "density_atomic": [16.58771], "deprecated": [false], "efermi": [5.726336], "energy_above_hull": [0.005580584], "energy_per_atom": [-30.74668], "formation_energy_per_atom": [-0.2315107], "homogeneous_poisson": [0.358], "is_gap_direct": [false], "is_magnetic": [false], "is_metal": [true], "is_stable": [false], "nelements": [2], "nsites": [4], "num_magnetic_sites": [0], "num_unique_magnetic_sites": [0], "theoretical": [false], "total_magnetization": [7e-07], "total_magnetization_normalized_formula_units": [7e-07], "total_magnetization_normalized_vol": [1.054998e-08], "uncorrected_energy_per_atom": [-30.74668], "universal_anisotropy": [1.112], "volume": [66.35085]}