{"includesElement": ["", "Co", "Ta"], "includesElement___series_id": [8], "includesElement__abundance_crust": [25.0, 2.0], "includesElement__atomic_number": [27, 73], "includesElement__atomic_radius": [135.0, 145.0], "includesElement__atomic_radius_rahm": [233.0, 258.0], "includesElement__atomic_volume": [6.7, 10.9], "includesElement__atomic_weight": [58.93319, 180.9479], "includesElement__covalent_radius_cordero": [138.0, 170.0], "includesElement__covalent_radius_pyykko": [111.0, 146.0], "includesElement__covalent_radius_pyykko_double": [103.0, 126.0], "includesElement__covalent_radius_pyykko_triple": [96.0, 119.0], "includesElement__density": [8.86, 16.4], "includesElement__dipole_polarizability": [55.0, 74.0], "includesElement__dipole_polarizability_unc": [4.0, 20.0], "includesElement__discovery_year": [1739, 1802], "includesElement__electron_affinity": [0.6622565, 0.322], "includesElement__electronegativity_allred-rochow": [0.0003165327, 0.0001548133], "includesElement__electronegativity_cottrell-sutton": [0.1874437, 0.1503421], "includesElement__electronegativity_ghosh": [0.1432363, 0.234581], "includesElement__electronegativity_gordy": [0.03513514, 0.02260274], "includesElement__electronegativity_mulliken": [4.271633, 3.935785], "includesElement__electronegativity_nagle": [0.5469655, 0.4072985], "includesElement__electronegativity_pauling": [1.88, 1.5], "includesElement__electronegativity_sanderson": [0.8832424, 0.8358832], "includesElement__en_ghosh": [0.1432363, 0.234581], "includesElement__en_pauling": [1.88, 1.5], "includesElement__evaporation_heat": [389.1, 758.0], "includesElement__fusion_heat": [15.48, 24.7], "includesElement__glawe_number": [70, 52], "includesElement__group_id": [9, 5], "includesElement__heat_of_formation": [426.7, 782.0], "includesElement__is_radioactive": [false], "includesElement__lattice_constant": [2.51, 3.31], "includesElement__mendeleev_number": [63, 49], "includesElement__molar_heat_capacity": [24.81, 25.36], "includesElement__period": [4, 6], "includesElement__pettifor_number": [64, 53], "includesElement__specific_heat_capacity": [0.421, 0.14], "includesElement__vdw_radius": [200.0, 222.0], "includesElement__vdw_radius_alvarez": [240.0, 253.0], "includesElement__vdw_radius_mm3": [223.0, 243.0], "includesElement__vdw_radius_uff": [287.2, 317.0], "includesElement__abundance_sea": [2e-05, 2e-06], "includesElement__atomic_weight_uncertainty": [4e-06, 2e-05], "includesElement__c6_gb": [461.0, 887.0], "includesElement__covalent_radius_bragg": [137.0], "includesElement__electronegativity_allen": [10.86, 7.93], "includesElement__en_allen": [10.86, 7.93], "includesElement__metallic_radius": [116.0, 134.0], "includesElement__metallic_radius_c12": [125.0, 146.0], "includesElement__thermal_conductivity": [100.0, 57.5], "includesElement__vdw_radius_batsanov": [200.0, 220.0], "includesElement__c6": [408.0], "includesElement__is_monoisotopic": [true], "includesElement__gas_basicity": [719.8], "includesElement__proton_affinity": [742.7], "formula": ["Co1Ta1"], "spacegroup": ["221"], "thermalConductivity": [24.3372], "icsd": ["187978"], "band_gap": [0.0], "density": [13.78826], "density_atomic": [14.4446], "deprecated": [false], "efermi": [6.031459], "energy_above_hull": [0.1351361], "energy_per_atom": [-9.60198], "formation_energy_per_atom": [-0.1018075], "is_gap_direct": [false], "is_magnetic": [true], "is_metal": [true], "is_stable": [false], "nelements": [2], "nsites": [2], "num_magnetic_sites": [2], "num_unique_magnetic_sites": [2], "theoretical": [true], "total_magnetization": [1.79803], "total_magnetization_normalized_formula_units": [1.79803], "total_magnetization_normalized_vol": [0.06223883], "uncorrected_energy_per_atom": [-9.60198], "volume": [28.8892]}