{"includesElement": ["", "Er", "Pt"], "includesElement___series_id": [9, 8], "includesElement__abundance_crust": [3.5, 0.005], "includesElement__atomic_number": [68, 78], "includesElement__atomic_radius": [175.0, 135.0], "includesElement__atomic_radius_rahm": [272.0, 230.0], "includesElement__atomic_volume": [18.4, 9.1], "includesElement__atomic_weight": [167.259, 195.084], "includesElement__covalent_radius_cordero": [189.0, 136.0], "includesElement__covalent_radius_pyykko": [165.0, 123.0], "includesElement__covalent_radius_pyykko_double": [133.0, 112.0], "includesElement__density": [9.07, 21.5], "includesElement__dipole_polarizability": [150.0, 48.0], "includesElement__dipole_polarizability_unc": [10.0, 4.0], "includesElement__discovery_year": [1843, 1735], "includesElement__electronegativity_allred-rochow": [0.0001046832, 0.0002346487], "includesElement__electronegativity_cottrell-sutton": [0.1314257, 0.1698876], "includesElement__electronegativity_ghosh": [0.212261, 0.25691], "includesElement__electronegativity_gordy": [0.01727273, 0.02886179], "includesElement__electronegativity_mulliken": [3.05385, 5.543415], "includesElement__electronegativity_nagle": [0.4536061, 0.5928156], "includesElement__electronegativity_pauling": [1.24, 2.2], "includesElement__electronegativity_sanderson": [0.5576573, 1.45101], "includesElement__en_ghosh": [0.212261, 0.25691], "includesElement__en_pauling": [1.24, 2.2], "includesElement__evaporation_heat": [317.0, 470.0], "includesElement__glawe_number": [22, 64], "includesElement__heat_of_formation": [316.4, 565.7], "includesElement__is_radioactive": [false], "includesElement__lattice_constant": [3.56, 3.92], "includesElement__mendeleev_number": [35, 69], "includesElement__molar_heat_capacity": [28.12, 25.86], "includesElement__period": [6], "includesElement__pettifor_number": [23, 68], "includesElement__specific_heat_capacity": [0.168, 0.133], "includesElement__vdw_radius": [229.0, 213.0], "includesElement__vdw_radius_alvarez": [283.0, 229.0], "includesElement__vdw_radius_mm3": [267.0, 239.0], "includesElement__vdw_radius_uff": [339.1, 275.4], "includesElement__abundance_sea": [8.7e-07], "includesElement__atomic_weight_uncertainty": [0.003, 0.009], "includesElement__c6_gb": [2150.0, 470.0], "includesElement__covalent_radius_pyykko_triple": [110.0], "includesElement__electron_affinity": [2.128], "includesElement__fusion_heat": [21.76], "includesElement__group_id": [10], "includesElement__electronegativity_allen": [10.16], "includesElement__en_allen": [10.16], "includesElement__metallic_radius": [130.0], "includesElement__metallic_radius_c12": [139.0], "includesElement__thermal_conductivity": [71.6], "includesElement__vdw_radius_batsanov": [205.0], "formula": ["Er4Pt4"], "spacegroup": ["62"], "thermalConductivity": [1.95345], "icsd": ["630978"], "band_gap": [0.0], "density": [14.18487], "density_atomic": [21.20868], "deprecated": [false], "efermi": [4.956091], "energy_above_hull": [0.0], "energy_per_atom": [-44.13839], "formation_energy_per_atom": [-1.431817], "is_gap_direct": [false], "is_magnetic": [false], "is_metal": [true], "is_stable": [true], "nelements": [2], "nsites": [8], "num_magnetic_sites": [0], "num_unique_magnetic_sites": [0], "theoretical": [false], "total_magnetization": [0.0], "total_magnetization_normalized_formula_units": [0.0], "total_magnetization_normalized_vol": [0.0], "uncorrected_energy_per_atom": [-44.13839], "volume": [169.6694], "equilibrium_reaction_energy_per_atom": [-0.1464214]}