{"includesElement": ["", "Mg", "Ho"], "includesElement___series_id": [4, 9], "includesElement__abundance_crust": [23300.0, 1.3], "includesElement__atomic_number": [12, 67], "includesElement__atomic_radius": [150.0, 175.0], "includesElement__atomic_radius_rahm": [240.0, 273.0], "includesElement__atomic_volume": [14.0, 18.7], "includesElement__atomic_weight": [24.305, 164.9303], "includesElement__covalent_radius_cordero": [141.0, 192.0], "includesElement__covalent_radius_pyykko": [139.0, 166.0], "includesElement__covalent_radius_pyykko_double": [132.0, 133.0], "includesElement__covalent_radius_pyykko_triple": [127.0], "includesElement__density": [1.74, 8.8], "includesElement__dipole_polarizability": [71.2, 156.0], "includesElement__dipole_polarizability_unc": [0.4, 10.0], "includesElement__discovery_year": [1808, 1878], "includesElement__electronegativity_allred-rochow": [0.0001475079, 0.0001034258], "includesElement__electronegativity_cottrell-sutton": [0.1431908, 0.1310293], "includesElement__electronegativity_ghosh": [0.121644, 0.207795], "includesElement__electronegativity_gordy": [0.0205036, 0.01716867], "includesElement__electronegativity_mulliken": [3.823117, 3.01075], "includesElement__electronegativity_nagle": [0.3039835, 0.4367902], "includesElement__electronegativity_pauling": [1.31, 1.23], "includesElement__electronegativity_sanderson": [0.1524211, 0.5434919], "includesElement__en_ghosh": [0.121644, 0.207795], "includesElement__en_pauling": [1.31, 1.23], "includesElement__evaporation_heat": [131.8, 301.0], "includesElement__fusion_heat": [9.2], "includesElement__glawe_number": [73, 23], "includesElement__group_id": [2], "includesElement__heat_of_formation": [147.1, 300.6], "includesElement__is_radioactive": [false], "includesElement__lattice_constant": [3.21, 3.58], "includesElement__mendeleev_number": [76, 33], "includesElement__molar_heat_capacity": [24.869, 27.15], "includesElement__period": [3, 6], "includesElement__pettifor_number": [73, 24], "includesElement__specific_heat_capacity": [1.023, 0.165], "includesElement__vdw_radius": [173.0, 230.0], "includesElement__vdw_radius_alvarez": [251.0, 281.0], "includesElement__vdw_radius_mm3": [243.0, 267.0], "includesElement__vdw_radius_uff": [302.1, 340.9], "includesElement__abundance_sea": [1290.0, 2.2e-07], "includesElement__c6_gb": [629.0, 2280.0], "includesElement__covalent_radius_bragg": [142.0], "includesElement__electronegativity_allen": [7.646], "includesElement__en_allen": [7.646], "includesElement__metallic_radius": [136.0], "includesElement__metallic_radius_c12": [160.0], "includesElement__thermal_conductivity": [156.0], "includesElement__vdw_radius_batsanov": [220.0], "includesElement__c6": [626.0], "includesElement__gas_basicity": [797.3], "includesElement__proton_affinity": [819.6], "includesElement__vdw_radius_bondi": [173.0], "includesElement__atomic_weight_uncertainty": [2e-05], "includesElement__is_monoisotopic": [true], "formula": ["Ho1Mg1"], "spacegroup": ["221"], "thermalConductivity": [6.36478], "icsd": ["104417"], "band_gap": [0.0], "density": [5.85158], "density_atomic": [26.85024], "deprecated": [false], "efermi": [3.079045], "energy_above_hull": [0.0], "energy_per_atom": [-3.164973], "formation_energy_per_atom": [-0.05089822], "homogeneous_poisson": [0.3], "is_gap_direct": [false], "is_magnetic": [false], "is_metal": [true], "is_stable": [true], "nelements": [2], "nsites": [2], "num_magnetic_sites": [0], "num_unique_magnetic_sites": [0], "theoretical": [false], "total_magnetization": [1e-07], "total_magnetization_normalized_formula_units": [1e-07], "total_magnetization_normalized_vol": [1.862181e-09], "uncorrected_energy_per_atom": [-18.61512], "universal_anisotropy": [4.782], "volume": [53.70048], "cbm": [3.0624], "equilibrium_reaction_energy_per_atom": [-0.02510884], "vbm": [3.0906]}