{"includesElement": ["", "Li", "Ir"], "includesElement___series_id": [3, 8], "includesElement__abundance_crust": [20.0, 0.001], "includesElement__atomic_number": [3, 77], "includesElement__atomic_radius": [145.0, 135.0], "includesElement__atomic_radius_rahm": [220.0, 240.0], "includesElement__atomic_volume": [13.1, 8.54], "includesElement__atomic_weight": [6.94, 192.217], "includesElement__covalent_radius_cordero": [128.0, 141.0], "includesElement__covalent_radius_pyykko": [133.0, 122.0], "includesElement__covalent_radius_pyykko_double": [124.0, 115.0], "includesElement__density": [0.534, 22.5622], "includesElement__dipole_polarizability": [164.1125, 54.0], "includesElement__dipole_polarizability_unc": [0.0005, 7.0], "includesElement__discovery_year": [1817, 1804], "includesElement__electron_affinity": [0.618049, 1.5638], "includesElement__electronegativity_allred-rochow": [7.3492e-05, 0.0002620263], "includesElement__electronegativity_cottrell-sutton": [0.09886575, 0.1787938], "includesElement__electronegativity_ghosh": [0.105093, 0.25106], "includesElement__electronegativity_gordy": [0.009774436, 0.03196721], "includesElement__electronegativity_mulliken": [3.004882, 5.26541], "includesElement__electronegativity_nagle": [0.1826499, 0.5503212], "includesElement__electronegativity_pauling": [0.98, 2.2], "includesElement__electronegativity_sanderson": [0.04886793, 1.475998], "includesElement__en_ghosh": [0.105093, 0.25106], "includesElement__en_pauling": [0.98, 2.2], "includesElement__evaporation_heat": [148.0, 604.0], "includesElement__fusion_heat": [2.89, 27.61], "includesElement__glawe_number": [12, 62], "includesElement__group_id": [1, 9], "includesElement__heat_of_formation": [159.3, 669.0], "includesElement__is_radioactive": [false], "includesElement__lattice_constant": [3.49, 3.84], "includesElement__mendeleev_number": [1, 65], "includesElement__molar_heat_capacity": [24.86, 25.1], "includesElement__period": [2, 6], "includesElement__pettifor_number": [12, 65], "includesElement__specific_heat_capacity": [3.582, 0.131], "includesElement__vdw_radius": [182.0, 213.0], "includesElement__vdw_radius_alvarez": [212.0, 241.0], "includesElement__vdw_radius_mm3": [255.0, 236.0], "includesElement__vdw_radius_uff": [245.1, 284.0], "includesElement__abundance_sea": [0.18], "includesElement__c6_gb": [1410.0, 522.0], "includesElement__covalent_radius_bragg": [150.0], "includesElement__electronegativity_allen": [5.392, 9.96], "includesElement__en_allen": [5.392, 9.96], "includesElement__metallic_radius": [123.0, 127.0], "includesElement__metallic_radius_c12": [155.0, 136.0], "includesElement__thermal_conductivity": [84.8, 147.0], "includesElement__vdw_radius_batsanov": [220.0, 200.0], "includesElement__c6": [1392.0], "includesElement__vdw_radius_bondi": [181.0], "includesElement__covalent_radius_pyykko_triple": [107.0], "includesElement__atomic_weight_uncertainty": [0.003], "formula": ["Ir1Li1"], "spacegroup": ["187"], "thermalConductivity": [6.5718], "icsd": ["104487"], "band_gap": [0.0], "density": [12.45683], "density_atomic": [13.27423], "deprecated": [false], "efermi": [4.98204], "energy_above_hull": [0.0], "energy_per_atom": [-27.65712], "formation_energy_per_atom": [-0.2840932], "homogeneous_poisson": [0.293], "is_gap_direct": [false], "is_magnetic": [false], "is_metal": [true], "is_stable": [true], "nelements": [2], "nsites": [2], "num_magnetic_sites": [0], "num_unique_magnetic_sites": [0], "theoretical": [false], "total_magnetization": [0.1424125], "total_magnetization_normalized_formula_units": [0.1424125], "total_magnetization_normalized_vol": [0.005364249], "uncorrected_energy_per_atom": [-27.65712], "universal_anisotropy": [4.464], "volume": [26.54845], "cbm": [4.9722], "equilibrium_reaction_energy_per_atom": [-0.1373322], "vbm": [5.0129]}