{"includesElement": ["", "Mg", "Er"], "includesElement___series_id": [4, 9], "includesElement__abundance_crust": [23300.0, 3.5], "includesElement__atomic_number": [12, 68], "includesElement__atomic_radius": [150.0, 175.0], "includesElement__atomic_radius_rahm": [240.0, 272.0], "includesElement__atomic_volume": [14.0, 18.4], "includesElement__atomic_weight": [24.305, 167.259], "includesElement__covalent_radius_cordero": [141.0, 189.0], "includesElement__covalent_radius_pyykko": [139.0, 165.0], "includesElement__covalent_radius_pyykko_double": [132.0, 133.0], "includesElement__covalent_radius_pyykko_triple": [127.0], "includesElement__density": [1.74, 9.07], "includesElement__dipole_polarizability": [71.2, 150.0], "includesElement__dipole_polarizability_unc": [0.4, 10.0], "includesElement__discovery_year": [1808, 1843], "includesElement__electronegativity_allred-rochow": [0.0001475079, 0.0001046832], "includesElement__electronegativity_cottrell-sutton": [0.1431908, 0.1314257], "includesElement__electronegativity_ghosh": [0.121644, 0.212261], "includesElement__electronegativity_gordy": [0.0205036, 0.01727273], "includesElement__electronegativity_mulliken": [3.823117, 3.05385], "includesElement__electronegativity_nagle": [0.3039835, 0.4536061], "includesElement__electronegativity_pauling": [1.31, 1.24], "includesElement__electronegativity_sanderson": [0.1524211, 0.5576573], "includesElement__en_ghosh": [0.121644, 0.212261], "includesElement__en_pauling": [1.31, 1.24], "includesElement__evaporation_heat": [131.8, 317.0], "includesElement__fusion_heat": [9.2], "includesElement__glawe_number": [73, 22], "includesElement__group_id": [2], "includesElement__heat_of_formation": [147.1, 316.4], "includesElement__is_radioactive": [false], "includesElement__lattice_constant": [3.21, 3.56], "includesElement__mendeleev_number": [76, 35], "includesElement__molar_heat_capacity": [24.869, 28.12], "includesElement__period": [3, 6], "includesElement__pettifor_number": [73, 23], "includesElement__specific_heat_capacity": [1.023, 0.168], "includesElement__vdw_radius": [173.0, 229.0], "includesElement__vdw_radius_alvarez": [251.0, 283.0], "includesElement__vdw_radius_mm3": [243.0, 267.0], "includesElement__vdw_radius_uff": [302.1, 339.1], "includesElement__abundance_sea": [1290.0, 8.7e-07], "includesElement__c6_gb": [629.0, 2150.0], "includesElement__covalent_radius_bragg": [142.0], "includesElement__electronegativity_allen": [7.646], "includesElement__en_allen": [7.646], "includesElement__metallic_radius": [136.0], "includesElement__metallic_radius_c12": [160.0], "includesElement__thermal_conductivity": [156.0], "includesElement__vdw_radius_batsanov": [220.0], "includesElement__c6": [626.0], "includesElement__gas_basicity": [797.3], "includesElement__proton_affinity": [819.6], "includesElement__vdw_radius_bondi": [173.0], "includesElement__atomic_weight_uncertainty": [0.003], "formula": ["Er1Mg1"], "spacegroup": ["221"], "thermalConductivity": [11.4835], "icsd": ["103260"], "band_gap": [0.0], "density": [5.981573], "density_atomic": [26.58996], "deprecated": [false], "efermi": [3.08583], "energy_above_hull": [0.0], "energy_per_atom": [-3.150949], "formation_energy_per_atom": [-0.05185457], "is_gap_direct": [false], "is_magnetic": [false], "is_metal": [true], "is_stable": [true], "nelements": [2], "nsites": [2], "num_magnetic_sites": [0], "num_unique_magnetic_sites": [0], "theoretical": [false], "total_magnetization": [3.03e-05], "total_magnetization_normalized_formula_units": [3.03e-05], "total_magnetization_normalized_vol": [5.69764e-07], "uncorrected_energy_per_atom": [-19.1231], "volume": [53.17991], "cbm": [3.035], "equilibrium_reaction_energy_per_atom": [-0.02980834], "vbm": [3.0929]}