{"includesElement": ["", "Al", "Hf"], "includesElement___series_id": [7, 8], "includesElement__abundance_crust": [82300.0, 3.0], "includesElement__atomic_number": [13, 72], "includesElement__atomic_radius": [125.0, 155.0], "includesElement__atomic_radius_rahm": [239.0, 264.0], "includesElement__atomic_volume": [10.0, 13.6], "includesElement__atomic_weight": [26.98154, 178.49], "includesElement__covalent_radius_cordero": [121.0, 175.0], "includesElement__covalent_radius_pyykko": [126.0, 152.0], "includesElement__covalent_radius_pyykko_double": [113.0, 128.0], "includesElement__covalent_radius_pyykko_triple": [111.0, 122.0], "includesElement__density": [2.7, 13.3], "includesElement__dipole_polarizability": [57.8, 103.0], "includesElement__dipole_polarizability_unc": [1.0, 6.0], "includesElement__discovery_year": [1825, 1923], "includesElement__electron_affinity": [0.43283, 0.014], "includesElement__electronegativity_allred-rochow": [0.0002204586, 0.00013634], "includesElement__electronegativity_cottrell-sutton": [0.1666667, 0.1439572], "includesElement__electronegativity_ghosh": [0.150078, 0.229987], "includesElement__electronegativity_gordy": [0.02777778, 0.02072368], "includesElement__electronegativity_mulliken": [3.209299, 3.419535], "includesElement__electronegativity_nagle": [0.3730192, 0.3386421], "includesElement__electronegativity_pauling": [1.61, 1.3], "includesElement__electronegativity_sanderson": [0.2360927, 0.7352125], "includesElement__en_ghosh": [0.150078, 0.229987], "includesElement__en_pauling": [1.61, 1.3], "includesElement__evaporation_heat": [284.1, 575.0], "includesElement__fusion_heat": [10.75, 25.1], "includesElement__glawe_number": [78, 50], "includesElement__group_id": [13, 4], "includesElement__heat_of_formation": [330.9, 618.4], "includesElement__is_radioactive": [false], "includesElement__lattice_constant": [4.05, 3.2], "includesElement__mendeleev_number": [82, 45], "includesElement__molar_heat_capacity": [24.2, 25.73], "includesElement__period": [3, 6], "includesElement__pettifor_number": [80, 50], "includesElement__specific_heat_capacity": [0.897, 0.144], "includesElement__vdw_radius": [184.0, 223.0], "includesElement__vdw_radius_alvarez": [225.0, 263.0], "includesElement__vdw_radius_mm3": [236.0, 253.0], "includesElement__vdw_radius_uff": [449.9, 314.1], "includesElement__abundance_sea": [0.002, 7e-06], "includesElement__atomic_weight_uncertainty": [7e-07, 0.02], "includesElement__c6_gb": [520.0, 1040.0], "includesElement__covalent_radius_bragg": [135.0], "includesElement__electronegativity_allen": [9.539, 6.83], "includesElement__en_allen": [9.539, 6.83], "includesElement__metallic_radius": [125.0, 144.0], "includesElement__metallic_radius_c12": [143.0, 159.0], "includesElement__thermal_conductivity": [237.0, 23.0], "includesElement__vdw_radius_batsanov": [210.0, 225.0], "includesElement__c6": [528.0], "includesElement__is_monoisotopic": [true], "includesElement__vdw_radius_dreiding": [439.0], "includesElement__vdw_radius_truhlar": [184.0], "formula": ["Al3Hf4"], "spacegroup": ["191"], "thermalConductivity": [13.4608], "icsd": ["608072"], "band_gap": [0.0], "density": [9.937218], "density_atomic": [18.97585], "deprecated": [false], "efermi": [5.915206], "energy_above_hull": [0.0], "energy_per_atom": [-29.13248], "formation_energy_per_atom": [-0.446483], "homogeneous_poisson": [0.198], "is_gap_direct": [false], "is_magnetic": [false], "is_metal": [true], "is_stable": [true], "nelements": [2], "nsites": [7], "num_magnetic_sites": [0], "num_unique_magnetic_sites": [0], "theoretical": [false], "total_magnetization": [0.325522], "total_magnetization_normalized_formula_units": [0.325522], "total_magnetization_normalized_vol": [0.002450649], "uncorrected_energy_per_atom": [-29.13248], "universal_anisotropy": [0.071], "volume": [132.831], "equilibrium_reaction_energy_per_atom": [-0.1157432]}