{"includesElement": ["", "Si", "Ag", "Pt"], "includesElement___series_id": [5, 8], "includesElement__abundance_crust": [282000.0, 0.075, 0.005], "includesElement__atomic_number": [14, 47, 78], "includesElement__atomic_radius": [110.0, 160.0, 135.0], "includesElement__atomic_radius_rahm": [232.0, 225.0, 230.0], "includesElement__atomic_volume": [12.1, 10.3, 9.1], "includesElement__atomic_weight": [28.085, 107.8682, 195.084], "includesElement__covalent_radius_cordero": [111.0, 145.0, 136.0], "includesElement__covalent_radius_pyykko": [116.0, 128.0, 123.0], "includesElement__covalent_radius_pyykko_double": [107.0, 139.0, 112.0], "includesElement__covalent_radius_pyykko_triple": [102.0, 137.0, 110.0], "includesElement__density": [2.3296, 10.5, 21.5], "includesElement__dipole_polarizability": [37.3, 55.0, 48.0], "includesElement__dipole_polarizability_unc": [0.7, 8.0, 4.0], "includesElement__discovery_year": [1824, 1735], "includesElement__electron_affinity": [1.389521, 1.302, 2.128], "includesElement__electronegativity_allred-rochow": [0.0003084126, 0.0002258301, 0.0002346487], "includesElement__electronegativity_cottrell-sutton": [0.1891451, 0.1700184, 0.1698876], "includesElement__electronegativity_ghosh": [0.178503, 0.1472165, 0.25691], "includesElement__electronegativity_gordy": [0.03577586, 0.02890625, 0.02886179], "includesElement__electronegativity_mulliken": [4.770602, 4.439117, 5.543415], "includesElement__electronegativity_nagle": [0.4750986, 0.5848035, 0.5928156], "includesElement__electronegativity_pauling": [1.9, 1.93, 2.2], "includesElement__electronegativity_sanderson": [0.3468158, 0.9437955, 1.45101], "includesElement__en_ghosh": [0.178503, 0.1472165, 0.25691], "includesElement__en_pauling": [1.9, 1.93, 2.2], "includesElement__evaporation_heat": [383.0, 254.1, 470.0], "includesElement__fusion_heat": [50.6, 11.95, 21.76], "includesElement__glawe_number": [85, 67, 64], "includesElement__group_id": [14, 11, 10], "includesElement__heat_of_formation": [450.0, 284.9, 565.7], "includesElement__is_radioactive": [false], "includesElement__lattice_constant": [5.43, 4.09, 3.92], "includesElement__mendeleev_number": [88, 72, 69], "includesElement__molar_heat_capacity": [19.99, 25.35, 25.86], "includesElement__period": [3, 5, 6], "includesElement__pettifor_number": [85, 71, 68], "includesElement__specific_heat_capacity": [0.712, 0.235, 0.133], "includesElement__vdw_radius": [210.0, 211.0, 213.0], "includesElement__vdw_radius_alvarez": [219.0, 253.0, 229.0], "includesElement__vdw_radius_mm3": [229.0, 243.0, 239.0], "includesElement__vdw_radius_uff": [429.5, 314.8, 275.4], "includesElement__abundance_sea": [2.2, 4e-05], "includesElement__c6_gb": [308.0, 341.0, 470.0], "includesElement__covalent_radius_bragg": [117.0, 177.0], "includesElement__electronegativity_allen": [11.33, 11.05, 10.16], "includesElement__en_allen": [11.33, 11.05, 10.16], "includesElement__metallic_radius": [117.0, 134.0, 130.0], "includesElement__metallic_radius_c12": [138.0, 144.0, 139.0], "includesElement__thermal_conductivity": [149.0, 429.0, 71.6], "includesElement__vdw_radius_batsanov": [210.0, 205.0], "includesElement__c6": [305.0], "includesElement__vdw_radius_dreiding": [427.0], "includesElement__gas_basicity": [814.1], "includesElement__proton_affinity": [837.0], "includesElement__vdw_radius_bondi": [210.0], "includesElement__atomic_weight_uncertainty": [0.0002, 0.009], "formula": ["Ag1Pt5Si1"], "spacegroup": ["123"], "thermalConductivity": [2.09432], "icsd": ["605693"], "band_gap": [0.0], "density": [16.45209], "density_atomic": [16.02471], "deprecated": [false], "efermi": [6.631565], "energy_above_hull": [0.05828317], "energy_per_atom": [-41.38038], "formation_energy_per_atom": [-0.2992063], "homogeneous_poisson": [0.368], "is_gap_direct": [false], "is_magnetic": [false], "is_metal": [true], "is_stable": [false], "nelements": [3], "nsites": [7], "num_magnetic_sites": [0], "num_unique_magnetic_sites": [0], "theoretical": [false], "total_magnetization": [2.1e-06], "total_magnetization_normalized_formula_units": [2.1e-06], "total_magnetization_normalized_vol": [1.872109e-08], "uncorrected_energy_per_atom": [-5.785133], "universal_anisotropy": [0.794], "volume": [112.1729]}