{"includesElement": ["", "Zn", "La"], "includesElement___series_id": [8, 9], "includesElement__abundance_crust": [70.0, 39.0], "includesElement__atomic_number": [30, 57], "includesElement__atomic_radius": [135.0, 195.0], "includesElement__atomic_radius_rahm": [222.0, 284.0], "includesElement__atomic_volume": [9.2, 22.5], "includesElement__atomic_weight": [65.38, 138.9055], "includesElement__covalent_radius_cordero": [122.0, 207.0], "includesElement__covalent_radius_pyykko": [118.0, 180.0], "includesElement__covalent_radius_pyykko_double": [120.0, 139.0], "includesElement__density": [7.134, 6.15], "includesElement__dipole_polarizability": [38.67, 215.0], "includesElement__dipole_polarizability_unc": [0.3, 20.0], "includesElement__electronegativity_allred-rochow": [0.0003124102, 9.259259e-05], "includesElement__electronegativity_cottrell-sutton": [0.1920011, 0.1290994], "includesElement__electronegativity_ghosh": [0.1551518, 0.163142], "includesElement__electronegativity_gordy": [0.03686441, 0.01666667], "includesElement__electronegativity_mulliken": [4.6971, 3.02345], "includesElement__electronegativity_nagle": [0.6770213, 0.240747], "includesElement__electronegativity_pauling": [1.65, 1.1], "includesElement__electronegativity_sanderson": [0.8100877, 0.3946505], "includesElement__en_ghosh": [0.1551518, 0.163142], "includesElement__en_pauling": [1.65, 1.1], "includesElement__evaporation_heat": [114.8, 402.0], "includesElement__fusion_heat": [7.28, 8.5], "includesElement__glawe_number": [74, 32], "includesElement__group_id": [12, 3], "includesElement__heat_of_formation": [130.4, 431.0], "includesElement__is_radioactive": [false], "includesElement__lattice_constant": [2.66, 3.75], "includesElement__mendeleev_number": [77, 13], "includesElement__molar_heat_capacity": [25.39, 27.11], "includesElement__period": [4, 6], "includesElement__pettifor_number": [76, 33], "includesElement__specific_heat_capacity": [0.388, 0.195], "includesElement__vdw_radius": [201.0, 243.0], "includesElement__vdw_radius_alvarez": [239.0, 298.0], "includesElement__vdw_radius_mm3": [229.0, 278.0], "includesElement__vdw_radius_uff": [276.3, 352.2], "includesElement__abundance_sea": [0.0049, 3.4e-06], "includesElement__atomic_weight_uncertainty": [0.02, 7e-05], "includesElement__c6_gb": [276.0, 3730.0], "includesElement__covalent_radius_bragg": [132.0], "includesElement__electronegativity_allen": [9.395], "includesElement__en_allen": [9.395], "includesElement__metallic_radius": [121.0, 169.0], "includesElement__metallic_radius_c12": [134.0, 187.0], "includesElement__thermal_conductivity": [116.0, 13.4], "includesElement__vdw_radius_batsanov": [210.0, 250.0], "includesElement__c6": [284.0], "includesElement__gas_basicity": [586.0, 991.9], "includesElement__proton_affinity": [608.6, 1013.0], "includesElement__covalent_radius_pyykko_triple": [139.0], "includesElement__discovery_year": [1839], "includesElement__electron_affinity": [0.47], "formula": ["La1Zn1"], "spacegroup": ["221"], "thermalConductivity": [5.71992], "icsd": ["104735"], "band_gap": [0.0], "density": [6.401685], "density_atomic": [26.49866], "deprecated": [false], "efermi": [6.037953], "energy_above_hull": [0.0], "energy_per_atom": [-19.65304], "formation_energy_per_atom": [-0.3253464], "is_gap_direct": [false], "is_magnetic": [false], "is_metal": [true], "is_stable": [true], "nelements": [2], "nsites": [2], "num_magnetic_sites": [0], "num_unique_magnetic_sites": [0], "theoretical": [false], "total_magnetization": [0.000895], "total_magnetization_normalized_formula_units": [0.000895], "total_magnetization_normalized_vol": [1.688765e-05], "uncorrected_energy_per_atom": [-19.65304], "volume": [52.99732], "equilibrium_reaction_energy_per_atom": [-0.02638035]}