{"includesElement": ["", "Al", "N", "Er"], "includesElement___series_id": [7, 1, 9], "includesElement__abundance_crust": [82300.0, 19.0, 3.5], "includesElement__atomic_number": [13, 7, 68], "includesElement__atomic_radius": [125.0, 65.0, 175.0], "includesElement__atomic_radius_rahm": [239.0, 179.0, 272.0], "includesElement__atomic_volume": [10.0, 17.3, 18.4], "includesElement__atomic_weight": [26.98154, 14.007, 167.259], "includesElement__covalent_radius_cordero": [121.0, 71.0, 189.0], "includesElement__covalent_radius_pyykko": [126.0, 71.0, 165.0], "includesElement__covalent_radius_pyykko_double": [113.0, 60.0, 133.0], "includesElement__covalent_radius_pyykko_triple": [111.0, 54.0], "includesElement__density": [2.7, 0.001145, 9.07], "includesElement__dipole_polarizability": [57.8, 7.4, 150.0], "includesElement__dipole_polarizability_unc": [1.0, 0.2, 10.0], "includesElement__discovery_year": [1825, 1772, 1843], "includesElement__electron_affinity": [0.43283, -1.4], "includesElement__electronegativity_allred-rochow": [0.0002204586, 0.000773656, 0.0001046832], "includesElement__electronegativity_cottrell-sutton": [0.1666667, 0.2343706, 0.1314257], "includesElement__electronegativity_ghosh": [0.150078, 0.26493, 0.212261], "includesElement__electronegativity_gordy": [0.02777778, 0.05492958, 0.01727273], "includesElement__electronegativity_mulliken": [3.209299, 6.567065, 3.05385], "includesElement__electronegativity_nagle": [0.3730192, 0.8774979, 0.4536061], "includesElement__electronegativity_pauling": [1.61, 3.04, 1.24], "includesElement__electronegativity_sanderson": [0.2360927, 0.577482, 0.5576573], "includesElement__en_ghosh": [0.150078, 0.26493, 0.212261], "includesElement__en_pauling": [1.61, 3.04, 1.24], "includesElement__evaporation_heat": [284.1, 317.0], "includesElement__fusion_heat": [10.75], "includesElement__glawe_number": [78, 88, 22], "includesElement__group_id": [13, 15], "includesElement__heat_of_formation": [330.9, 472.44, 316.4], "includesElement__is_radioactive": [false], "includesElement__lattice_constant": [4.05, 4.039, 3.56], "includesElement__mendeleev_number": [82, 93, 35], "includesElement__molar_heat_capacity": [24.2, 29.124, 28.12], "includesElement__period": [3, 2, 6], "includesElement__pettifor_number": [80, 100, 23], "includesElement__specific_heat_capacity": [0.897, 1.04, 0.168], "includesElement__vdw_radius": [184.0, 155.0, 229.0], "includesElement__vdw_radius_alvarez": [225.0, 166.0, 283.0], "includesElement__vdw_radius_mm3": [236.0, 193.0, 267.0], "includesElement__vdw_radius_uff": [449.9, 366.0, 339.1], "includesElement__abundance_sea": [0.002, 0.5, 8.7e-07], "includesElement__atomic_weight_uncertainty": [7e-07, 0.003], "includesElement__c6_gb": [520.0, 25.7, 2150.0], "includesElement__covalent_radius_bragg": [135.0, 65.0], "includesElement__electronegativity_allen": [9.539, 18.13], "includesElement__en_allen": [9.539, 18.13], "includesElement__metallic_radius": [125.0], "includesElement__metallic_radius_c12": [143.0, 53.0], "includesElement__thermal_conductivity": [237.0, 0.026], "includesElement__vdw_radius_batsanov": [210.0, 160.0], "includesElement__c6": [528.0, 24.2], "includesElement__is_monoisotopic": [true], "includesElement__vdw_radius_dreiding": [439.0, 366.21], "includesElement__vdw_radius_truhlar": [184.0], "includesElement__gas_basicity": [318.7], "includesElement__proton_affinity": [342.2], "includesElement__vdw_radius_bondi": [155.0], "includesElement__vdw_radius_rt": [164.0], "formula": ["Al1Er3N1"], "spacegroup": ["221"], "thermalConductivity": [11.0693], "icsd": ["607415"], "band_gap": [0.0], "density": [8.756154], "density_atomic": [20.58627], "deprecated": [false], "efermi": [4.167507], "energy_above_hull": [0.0], "energy_per_atom": [-24.6319], "formation_energy_per_atom": [-1.104469], "is_gap_direct": [false], "is_magnetic": [false], "is_metal": [true], "is_stable": [true], "nelements": [3], "nsites": [5], "num_magnetic_sites": [0], "num_unique_magnetic_sites": [0], "theoretical": [true], "total_magnetization": [6.1e-06], "total_magnetization_normalized_formula_units": [6.1e-06], "total_magnetization_normalized_vol": [5.926279e-08], "uncorrected_energy_per_atom": [-24.6319], "volume": [102.9314], "equilibrium_reaction_energy_per_atom": [-0.06172943]}