{"includesElement": ["", "Ni", "U"], "includesElement___series_id": [8, 10], "includesElement__abundance_crust": [84.0, 2.7], "includesElement__atomic_number": [28, 92], "includesElement__atomic_radius": [135.0, 175.0], "includesElement__atomic_radius_rahm": [229.0, 283.0], "includesElement__atomic_volume": [6.6, 12.5], "includesElement__atomic_weight": [58.6934, 238.0289], "includesElement__covalent_radius_cordero": [124.0, 196.0], "includesElement__covalent_radius_pyykko": [110.0, 170.0], "includesElement__covalent_radius_pyykko_double": [101.0, 134.0], "includesElement__covalent_radius_pyykko_triple": [101.0, 118.0], "includesElement__density": [8.9, 19.1], "includesElement__dipole_polarizability": [49.0, 129.0], "includesElement__dipole_polarizability_unc": [3.0, 17.0], "includesElement__discovery_year": [1751, 1789], "includesElement__electron_affinity": [1.156], "includesElement__electronegativity_allred-rochow": [0.0003347107, 0.0001038062], "includesElement__electronegativity_cottrell-sutton": [0.1918806, 0.1328422], "includesElement__electronegativity_ghosh": [0.1472068, 0.13207], "includesElement__electronegativity_gordy": [0.03681818, 0.01764706], "includesElement__electronegativity_mulliken": [4.397939, 3.097025], "includesElement__electronegativity_nagle": [0.588755, 0.3596283], "includesElement__electronegativity_pauling": [1.91, 1.7], "includesElement__electronegativity_sanderson": [0.937704, 0.618118], "includesElement__en_ghosh": [0.1472068, 0.13207], "includesElement__en_pauling": [1.91, 1.7], "includesElement__evaporation_heat": [378.6, 417.0], "includesElement__fusion_heat": [17.61, 12.6], "includesElement__glawe_number": [69, 36], "includesElement__group_id": [10], "includesElement__heat_of_formation": [430.1, 533.0], "includesElement__is_radioactive": [false, true], "includesElement__lattice_constant": [3.52, 2.85], "includesElement__mendeleev_number": [67, 20], "includesElement__molar_heat_capacity": [26.07, 27.665], "includesElement__period": [4, 7], "includesElement__pettifor_number": [67, 45], "includesElement__specific_heat_capacity": [0.444, 0.116], "includesElement__vdw_radius": [197.0, 241.0], "includesElement__vdw_radius_alvarez": [240.0, 271.0], "includesElement__vdw_radius_mm3": [222.0, 252.0], "includesElement__vdw_radius_uff": [283.4, 339.5], "includesElement__abundance_sea": [0.00056, 0.0032], "includesElement__atomic_weight_uncertainty": [0.0004, 3e-05], "includesElement__c6_gb": [393.0], "includesElement__covalent_radius_bragg": [135.0], "includesElement__electronegativity_allen": [11.13], "includesElement__en_allen": [11.13], "includesElement__metallic_radius": [115.0], "includesElement__metallic_radius_c12": [124.0], "includesElement__thermal_conductivity": [90.9, 27.5], "includesElement__vdw_radius_batsanov": [200.0, 230.0], "includesElement__c6": [373.0], "includesElement__gas_basicity": [714.1, 973.2], "includesElement__proton_affinity": [737.0, 995.2], "formula": ["Ni5U1"], "spacegroup": ["216"], "thermalConductivity": [8.43193], "icsd": ["105437"], "band_gap": [0.0], "density": [11.79175], "density_atomic": [12.47439], "deprecated": [false], "efermi": [9.467419], "energy_above_hull": [0.0], "energy_per_atom": [-6.961952], "formation_energy_per_atom": [-0.2632695], "homogeneous_poisson": [0.318], "is_gap_direct": [false], "is_magnetic": [false], "is_metal": [true], "is_stable": [true], "nelements": [2], "nsites": [6], "num_magnetic_sites": [0], "num_unique_magnetic_sites": [0], "theoretical": [false], "total_magnetization": [0.0049497], "total_magnetization_normalized_formula_units": [0.0049497], "total_magnetization_normalized_vol": [6.613147e-05], "uncorrected_energy_per_atom": [-23.52762], "universal_anisotropy": [0.133], "volume": [74.84636], "equilibrium_reaction_energy_per_atom": [-0.1534836]}