{"includesElement": ["", "P", "Co"], "includesElement___series_id": [1, 8], "includesElement__abundance_crust": [1050.0, 25.0], "includesElement__atomic_number": [15, 27], "includesElement__atomic_radius": [100.0, 135.0], "includesElement__atomic_radius_rahm": [223.0, 233.0], "includesElement__atomic_volume": [17.0, 6.7], "includesElement__atomic_weight": [30.97376, 58.93319], "includesElement__covalent_radius_cordero": [107.0, 138.0], "includesElement__covalent_radius_pyykko": [111.0], "includesElement__covalent_radius_pyykko_double": [102.0, 103.0], "includesElement__covalent_radius_pyykko_triple": [94.0, 96.0], "includesElement__density": [1.823, 8.86], "includesElement__dipole_polarizability": [25.0, 55.0], "includesElement__dipole_polarizability_unc": [1.0, 4.0], "includesElement__discovery_year": [1669, 1739], "includesElement__electron_affinity": [0.746607, 0.6622565], "includesElement__electronegativity_allred-rochow": [0.0003895788, 0.0003165327], "includesElement__electronegativity_cottrell-sutton": [0.2079501, 0.1874437], "includesElement__electronegativity_ghosh": [0.206931, 0.1432363], "includesElement__electronegativity_gordy": [0.04324324, 0.03513514], "includesElement__electronegativity_mulliken": [5.616646, 4.271633], "includesElement__electronegativity_nagle": [0.5848035, 0.5469655], "includesElement__electronegativity_pauling": [2.19, 1.88], "includesElement__electronegativity_sanderson": [0.4510269, 0.8832424], "includesElement__en_ghosh": [0.206931, 0.1432363], "includesElement__en_pauling": [2.19, 1.88], "includesElement__evaporation_heat": [49.8, 389.1], "includesElement__fusion_heat": [2.51, 15.48], "includesElement__glawe_number": [89, 70], "includesElement__group_id": [15, 9], "includesElement__heat_of_formation": [316.5, 426.7], "includesElement__is_radioactive": [false], "includesElement__lattice_constant": [7.17, 2.51], "includesElement__mendeleev_number": [94, 63], "includesElement__molar_heat_capacity": [23.824, 24.81], "includesElement__period": [3, 4], "includesElement__pettifor_number": [90, 64], "includesElement__specific_heat_capacity": [0.769, 0.421], "includesElement__vdw_radius": [180.0, 200.0], "includesElement__vdw_radius_alvarez": [190.0, 240.0], "includesElement__vdw_radius_mm3": [222.0, 223.0], "includesElement__vdw_radius_uff": [414.7, 287.2], "includesElement__abundance_sea": [0.06, 2e-05], "includesElement__atomic_weight_uncertainty": [5e-09, 4e-06], "includesElement__c6_gb": [187.0, 461.0], "includesElement__electronegativity_allen": [13.33, 10.86], "includesElement__en_allen": [13.33, 10.86], "includesElement__metallic_radius": [110.0, 116.0], "includesElement__metallic_radius_c12": [128.0, 125.0], "includesElement__vdw_radius_batsanov": [195.0, 200.0], "includesElement__c6": [185.0, 408.0], "includesElement__is_monoisotopic": [true], "includesElement__vdw_radius_dreiding": [415.0], "includesElement__gas_basicity": [604.8, 719.8], "includesElement__proton_affinity": [626.8, 742.7], "includesElement__vdw_radius_bondi": [180.0], "includesElement__covalent_radius_bragg": [137.0], "includesElement__thermal_conductivity": [100.0], "formula": ["Co4P12"], "spacegroup": ["204"], "thermalConductivity": [8.87044, 8.88645, 8.875, 8.88978], "icsd": ["23711", "604454", "624594", "92393"], "band_gap": [0.0], "density": [4.447886], "density_atomic": [14.17304], "deprecated": [false], "efermi": [8.32785], "energy_above_hull": [0.0], "energy_per_atom": [-10.55536], "formation_energy_per_atom": [-0.4952443], "homogeneous_poisson": [0.183], "is_gap_direct": [false], "is_magnetic": [false], "is_metal": [true], "is_stable": [true], "nelements": [2], "nsites": [16], "num_magnetic_sites": [0], "num_unique_magnetic_sites": [0], "theoretical": [false], "total_magnetization": [0.0], "total_magnetization_normalized_formula_units": [0.0], "total_magnetization_normalized_vol": [0.0], "uncorrected_energy_per_atom": [-10.55536], "universal_anisotropy": [0.014], "volume": [226.7687], "equilibrium_reaction_energy_per_atom": [-0.1155276]}