{"includesElement": ["", "Si", "Pb", "Pt"], "includesElement___series_id": [5, 7, 8], "includesElement__abundance_crust": [282000.0, 14.0, 0.005], "includesElement__atomic_number": [14, 82, 78], "includesElement__atomic_radius": [110.0, 180.0, 135.0], "includesElement__atomic_radius_rahm": [232.0, 249.0, 230.0], "includesElement__atomic_volume": [12.1, 18.3, 9.1], "includesElement__atomic_weight": [28.085, 207.2, 195.084], "includesElement__covalent_radius_cordero": [111.0, 146.0, 136.0], "includesElement__covalent_radius_pyykko": [116.0, 144.0, 123.0], "includesElement__covalent_radius_pyykko_double": [107.0, 135.0, 112.0], "includesElement__covalent_radius_pyykko_triple": [102.0, 137.0, 110.0], "includesElement__density": [2.3296, 11.3, 21.5], "includesElement__dipole_polarizability": [37.3, 47.0, 48.0], "includesElement__dipole_polarizability_unc": [0.7, 3.0, 4.0], "includesElement__discovery_year": [1824, 1735], "includesElement__electron_affinity": [1.389521, 0.3567432, 2.128], "includesElement__electronegativity_allred-rochow": [0.0003084126, 0.000272473, 0.0002346487], "includesElement__electronegativity_cottrell-sutton": [0.1891451, 0.1980811, 0.1698876], "includesElement__electronegativity_ghosh": [0.178503, 0.177911, 0.25691], "includesElement__electronegativity_gordy": [0.03577586, 0.03923611, 0.02886179], "includesElement__electronegativity_mulliken": [4.770602, 3.886711, 5.543415], "includesElement__electronegativity_nagle": [0.4750986, 0.4398663, 0.5928156], "includesElement__electronegativity_pauling": [1.9, 1.8, 2.2], "includesElement__electronegativity_sanderson": [0.3468158, 0.9313226, 1.45101], "includesElement__en_ghosh": [0.178503, 0.177911, 0.25691], "includesElement__en_pauling": [1.9, 1.8, 2.2], "includesElement__evaporation_heat": [383.0, 177.8, 470.0], "includesElement__fusion_heat": [50.6, 4.77, 21.76], "includesElement__glawe_number": [85, 82, 64], "includesElement__group_id": [14, 10], "includesElement__heat_of_formation": [450.0, 195.2, 565.7], "includesElement__is_radioactive": [false], "includesElement__lattice_constant": [5.43, 4.95, 3.92], "includesElement__mendeleev_number": [88, 91, 69], "includesElement__molar_heat_capacity": [19.99, 26.84, 25.86], "includesElement__period": [3, 6], "includesElement__pettifor_number": [85, 82, 68], "includesElement__specific_heat_capacity": [0.712, 0.13, 0.133], "includesElement__vdw_radius": [210.0, 202.0, 213.0], "includesElement__vdw_radius_alvarez": [219.0, 260.0, 229.0], "includesElement__vdw_radius_mm3": [229.0, 274.0, 239.0], "includesElement__vdw_radius_uff": [429.5, 429.7, 275.4], "includesElement__abundance_sea": [2.2, 3e-05], "includesElement__c6_gb": [308.0, 534.0, 470.0], "includesElement__covalent_radius_bragg": [117.0], "includesElement__electronegativity_allen": [11.33, 10.97, 10.16], "includesElement__en_allen": [11.33, 10.97, 10.16], "includesElement__metallic_radius": [117.0, 150.0, 130.0], "includesElement__metallic_radius_c12": [138.0, 170.0, 139.0], "includesElement__thermal_conductivity": [149.0, 35.3, 71.6], "includesElement__vdw_radius_batsanov": [210.0, 230.0, 205.0], "includesElement__c6": [305.0], "includesElement__vdw_radius_dreiding": [427.0], "includesElement__gas_basicity": [814.1], "includesElement__proton_affinity": [837.0], "includesElement__vdw_radius_bondi": [210.0, 202.0], "includesElement__atomic_weight_uncertainty": [0.1, 0.009], "formula": ["Pb1Pt5Si1"], "spacegroup": ["123"], "thermalConductivity": [2.10918], "icsd": ["648402"], "band_gap": [0.0], "density": [17.41123], "density_atomic": [16.4953], "deprecated": [false], "efermi": [8.071531], "energy_above_hull": [0.0001954229], "energy_per_atom": [-46.49392], "formation_energy_per_atom": [-0.4228536], "homogeneous_poisson": [0.357], "is_gap_direct": [false], "is_magnetic": [false], "is_metal": [true], "is_stable": [false], "nelements": [3], "nsites": [7], "num_magnetic_sites": [0], "num_unique_magnetic_sites": [0], "theoretical": [false], "total_magnetization": [0.0], "total_magnetization_normalized_formula_units": [0.0], "total_magnetization_normalized_vol": [0.0], "uncorrected_energy_per_atom": [-46.49392], "universal_anisotropy": [0.934], "volume": [115.4671]}