{"includesElement": ["", "V", "B"], "includesElement___series_id": [8, 5], "includesElement__abundance_crust": [120.0, 10.0], "includesElement__atomic_number": [23, 5], "includesElement__atomic_radius": [135.0, 85.0], "includesElement__atomic_radius_rahm": [252.0, 205.0], "includesElement__atomic_volume": [8.35, 4.6], "includesElement__atomic_weight": [50.9415, 10.81], "includesElement__covalent_radius_cordero": [153.0, 84.0], "includesElement__covalent_radius_pyykko": [134.0, 85.0], "includesElement__covalent_radius_pyykko_double": [112.0, 78.0], "includesElement__covalent_radius_pyykko_triple": [106.0, 73.0], "includesElement__density": [6.0, 2.34], "includesElement__dipole_polarizability": [87.0, 20.5], "includesElement__dipole_polarizability_unc": [10.0, 0.1], "includesElement__discovery_year": [1830, 1808], "includesElement__electron_affinity": [0.525, 0.279723], "includesElement__electronegativity_allred-rochow": [0.0001837826, 0.0003598616], "includesElement__electronegativity_cottrell-sutton": [0.1569295, 0.1748949], "includesElement__electronegativity_ghosh": [0.1273344, 0.184886], "includesElement__electronegativity_gordy": [0.02462687, 0.03058824], "includesElement__electronegativity_mulliken": [3.635594, 4.288871], "includesElement__electronegativity_nagle": [0.3859078, 0.5269739], "includesElement__electronegativity_pauling": [1.63, 2.04], "includesElement__electronegativity_sanderson": [0.4388898, 0.2546274], "includesElement__en_ghosh": [0.1273344, 0.184886], "includesElement__en_pauling": [1.63, 2.04], "includesElement__evaporation_heat": [460.0, 504.5], "includesElement__fusion_heat": [17.5, 23.6], "includesElement__glawe_number": [54, 86], "includesElement__group_id": [5, 13], "includesElement__heat_of_formation": [515.5, 565.0], "includesElement__is_radioactive": [false], "includesElement__lattice_constant": [3.02, 8.73], "includesElement__mendeleev_number": [47, 81], "includesElement__molar_heat_capacity": [24.89, 11.087], "includesElement__period": [4, 2], "includesElement__pettifor_number": [54, 86], "includesElement__specific_heat_capacity": [0.489, 1.026], "includesElement__vdw_radius": [207.0, 192.0], "includesElement__vdw_radius_alvarez": [242.0, 191.0], "includesElement__vdw_radius_mm3": [229.0, 215.0], "includesElement__vdw_radius_uff": [314.4, 408.3], "includesElement__abundance_sea": [0.0025, 4.44], "includesElement__atomic_weight_uncertainty": [0.0001], "includesElement__c6_gb": [955.0, 99.2], "includesElement__electronegativity_allen": [9.063, 12.13], "includesElement__en_allen": [9.063, 12.13], "includesElement__metallic_radius": [122.0, 80.0], "includesElement__metallic_radius_c12": [134.0, 98.0], "includesElement__thermal_conductivity": [30.7, 27.4], "includesElement__vdw_radius_batsanov": [205.0, 180.0], "includesElement__c6": [832.0, 99.5], "includesElement__gas_basicity": [836.8], "includesElement__proton_affinity": [859.4], "includesElement__vdw_radius_dreiding": [402.0], "includesElement__vdw_radius_truhlar": [192.0], "formula": ["B4V3"], "spacegroup": ["71"], "thermalConductivity": [49.6503], "icsd": ["615659"], "band_gap": [0.0], "density": [5.495814], "density_atomic": [8.463049], "deprecated": [false], "efermi": [8.126674], "energy_above_hull": [0.0], "energy_per_atom": [-11.09621], "formation_energy_per_atom": [-0.859899], "homogeneous_poisson": [0.172], "is_gap_direct": [false], "is_magnetic": [false], "is_metal": [true], "is_stable": [true], "nelements": [2], "nsites": [7], "num_magnetic_sites": [0], "num_unique_magnetic_sites": [0], "theoretical": [false], "total_magnetization": [0.0], "total_magnetization_normalized_formula_units": [0.0], "total_magnetization_normalized_vol": [0.0], "uncorrected_energy_per_atom": [-11.09621], "universal_anisotropy": [0.093], "volume": [59.24134], "equilibrium_reaction_energy_per_atom": [-0.004905201]}