{"includesElement": ["", "Hg", "Se"], "includesElement___series_id": [8, 1], "includesElement__abundance_crust": [0.085, 0.05], "includesElement__atomic_number": [80, 34], "includesElement__atomic_radius": [150.0, 115.0], "includesElement__atomic_radius_rahm": [229.0, 224.0], "includesElement__atomic_volume": [14.8, 16.5], "includesElement__atomic_weight": [200.592, 78.971], "includesElement__covalent_radius_cordero": [132.0, 120.0], "includesElement__covalent_radius_pyykko": [133.0, 116.0], "includesElement__covalent_radius_pyykko_double": [142.0, 107.0], "includesElement__density": [13.5336, 4.809], "includesElement__dipole_polarizability": [33.91, 28.9], "includesElement__dipole_polarizability_unc": [0.34, 1.0], "includesElement__electronegativity_allred-rochow": [0.0002459155, 0.0005164982], "includesElement__electronegativity_cottrell-sutton": [0.1808501, 0.2447729], "includesElement__electronegativity_ghosh": [0.169, 0.2240328], "includesElement__electronegativity_gordy": [0.03270677, 0.05991379], "includesElement__electronegativity_mulliken": [5.218752, 5.886531], "includesElement__electronegativity_nagle": [0.7073231, 0.592131], "includesElement__electronegativity_pauling": [1.9, 2.55], "includesElement__electronegativity_sanderson": [1.164789, 0.9659121], "includesElement__en_ghosh": [0.169, 0.2240328], "includesElement__en_pauling": [1.9, 2.55], "includesElement__evaporation_heat": [58.5, 59.7], "includesElement__fusion_heat": [2.295, 5.23], "includesElement__glawe_number": [76, 95], "includesElement__group_id": [12, 16], "includesElement__heat_of_formation": [61.38, 227.2], "includesElement__is_radioactive": [false], "includesElement__lattice_constant": [2.99, 4.36], "includesElement__mendeleev_number": [79, 101], "includesElement__molar_heat_capacity": [27.983, 25.363], "includesElement__period": [6, 4], "includesElement__pettifor_number": [74, 93], "includesElement__specific_heat_capacity": [0.14, 0.321], "includesElement__vdw_radius": [223.0, 190.0], "includesElement__vdw_radius_alvarez": [245.0, 182.0], "includesElement__vdw_radius_mm3": [253.0, 229.0], "includesElement__vdw_radius_uff": [270.5, 420.5], "includesElement__abundance_sea": [3e-05, 0.0002], "includesElement__atomic_weight_uncertainty": [0.003, 0.008], "includesElement__c6_gb": [268.0, 233.0], "includesElement__electronegativity_allen": [10.44, 14.34], "includesElement__en_allen": [10.44, 14.34], "includesElement__metallic_radius": [139.0, 117.0], "includesElement__metallic_radius_c12": [151.0, 140.0], "includesElement__thermal_conductivity": [8.3, 0.52], "includesElement__vdw_radius_batsanov": [205.0, 190.0], "includesElement__covalent_radius_pyykko_triple": [107.0], "includesElement__discovery_year": [1818], "includesElement__electron_affinity": [2.02067], "includesElement__covalent_radius_bragg": [117.0], "includesElement__c6": [210.0], "includesElement__vdw_radius_dreiding": [403.0], "includesElement__vdw_radius_bondi": [190.0], "formula": ["Hg1Se1"], "spacegroup": ["225"], "thermalConductivity": [1.04403], "icsd": ["56210"], "band_gap": [0.0], "density": [9.471401], "density_atomic": [24.50555], "deprecated": [false], "efermi": [2.573487], "energy_above_hull": [0.1514368], "energy_per_atom": [-31.92517], "formation_energy_per_atom": [-0.08548386], "homogeneous_poisson": [0.357], "is_gap_direct": [false], "is_magnetic": [false], "is_metal": [true], "is_stable": [false], "nelements": [2], "nsites": [2], "num_magnetic_sites": [0], "num_unique_magnetic_sites": [0], "theoretical": [false], "total_magnetization": [0.000149], "total_magnetization_normalized_formula_units": [0.000149], "total_magnetization_normalized_vol": [3.040128e-06], "uncorrected_energy_per_atom": [-1.954101], "universal_anisotropy": [0.005], "volume": [49.01109]}