{"includesElement": ["", "Mg", "Tb"], "includesElement___series_id": [4, 9], "includesElement__abundance_crust": [23300.0, 1.2], "includesElement__atomic_number": [12, 65], "includesElement__atomic_radius": [150.0, 175.0], "includesElement__atomic_radius_rahm": [240.0, 276.0], "includesElement__atomic_volume": [14.0, 19.2], "includesElement__atomic_weight": [24.305, 158.9254], "includesElement__covalent_radius_cordero": [141.0, 194.0], "includesElement__covalent_radius_pyykko": [139.0, 168.0], "includesElement__covalent_radius_pyykko_double": [132.0, 135.0], "includesElement__covalent_radius_pyykko_triple": [127.0], "includesElement__density": [1.74, 8.23], "includesElement__dipole_polarizability": [71.2, 170.0], "includesElement__dipole_polarizability_unc": [0.4, 20.0], "includesElement__discovery_year": [1808, 1843], "includesElement__electronegativity_allred-rochow": [0.0001475079, 0.0001009779], "includesElement__electronegativity_cottrell-sutton": [0.1431908, 0.130247], "includesElement__electronegativity_ghosh": [0.121644, 0.198863], "includesElement__electronegativity_gordy": [0.0205036, 0.01696429], "includesElement__electronegativity_mulliken": [3.823117, 3.5144], "includesElement__electronegativity_nagle": [0.3039835, 0.4014652], "includesElement__electronegativity_pauling": [1.31], "includesElement__electronegativity_sanderson": [0.1524211, 0.5163695], "includesElement__en_ghosh": [0.121644, 0.198863], "includesElement__en_pauling": [1.31], "includesElement__evaporation_heat": [131.8, 389.0], "includesElement__fusion_heat": [9.2], "includesElement__glawe_number": [73, 25], "includesElement__group_id": [2], "includesElement__heat_of_formation": [147.1, 388.7], "includesElement__is_radioactive": [false], "includesElement__lattice_constant": [3.21, 3.6], "includesElement__mendeleev_number": [76, 29], "includesElement__molar_heat_capacity": [24.869, 28.91], "includesElement__period": [3, 6], "includesElement__pettifor_number": [73, 26], "includesElement__specific_heat_capacity": [1.023, 0.182], "includesElement__vdw_radius": [173.0, 233.0], "includesElement__vdw_radius_alvarez": [251.0, 279.0], "includesElement__vdw_radius_mm3": [243.0, 270.0], "includesElement__vdw_radius_uff": [302.1, 345.1], "includesElement__abundance_sea": [1290.0, 1.4e-07], "includesElement__c6_gb": [629.0, 2590.0], "includesElement__covalent_radius_bragg": [142.0], "includesElement__electronegativity_allen": [7.646], "includesElement__en_allen": [7.646], "includesElement__metallic_radius": [136.0], "includesElement__metallic_radius_c12": [160.0], "includesElement__thermal_conductivity": [156.0, 11.1], "includesElement__vdw_radius_batsanov": [220.0], "includesElement__c6": [626.0], "includesElement__gas_basicity": [797.3], "includesElement__proton_affinity": [819.6], "includesElement__vdw_radius_bondi": [173.0], "includesElement__electron_affinity": [1.165], "includesElement__atomic_weight_uncertainty": [2e-05], "includesElement__is_monoisotopic": [true], "formula": ["Mg1Tb1"], "spacegroup": ["221"], "thermalConductivity": [6.64981], "icsd": ["104879"], "band_gap": [0.0], "density": [5.549893], "density_atomic": [27.41144], "deprecated": [false], "efermi": [3.21486], "energy_above_hull": [0.0], "energy_per_atom": [-3.202772], "formation_energy_per_atom": [-0.06860487], "homogeneous_poisson": [0.282], "is_gap_direct": [false], "is_magnetic": [false], "is_metal": [true], "is_stable": [true], "nelements": [2], "nsites": [2], "num_magnetic_sites": [0], "num_unique_magnetic_sites": [0], "theoretical": [false], "total_magnetization": [1.3e-06], "total_magnetization_normalized_formula_units": [1.3e-06], "total_magnetization_normalized_vol": [2.371273e-08], "uncorrected_energy_per_atom": [-17.7995], "universal_anisotropy": [3.476], "volume": [54.82288], "cbm": [3.1937], "equilibrium_reaction_energy_per_atom": [-0.03121491], "vbm": [3.2219]}