{"includesElement": ["", "Li", "Pt"], "includesElement___series_id": [3, 8], "includesElement__abundance_crust": [20.0, 0.005], "includesElement__atomic_number": [3, 78], "includesElement__atomic_radius": [145.0, 135.0], "includesElement__atomic_radius_rahm": [220.0, 230.0], "includesElement__atomic_volume": [13.1, 9.1], "includesElement__atomic_weight": [6.94, 195.084], "includesElement__covalent_radius_cordero": [128.0, 136.0], "includesElement__covalent_radius_pyykko": [133.0, 123.0], "includesElement__covalent_radius_pyykko_double": [124.0, 112.0], "includesElement__density": [0.534, 21.5], "includesElement__dipole_polarizability": [164.1125, 48.0], "includesElement__dipole_polarizability_unc": [0.0005, 4.0], "includesElement__discovery_year": [1817, 1735], "includesElement__electron_affinity": [0.618049, 2.128], "includesElement__electronegativity_allred-rochow": [7.3492e-05, 0.0002346487], "includesElement__electronegativity_cottrell-sutton": [0.09886575, 0.1698876], "includesElement__electronegativity_ghosh": [0.105093, 0.25691], "includesElement__electronegativity_gordy": [0.009774436, 0.02886179], "includesElement__electronegativity_mulliken": [3.004882, 5.543415], "includesElement__electronegativity_nagle": [0.1826499, 0.5928156], "includesElement__electronegativity_pauling": [0.98, 2.2], "includesElement__electronegativity_sanderson": [0.04886793, 1.45101], "includesElement__en_ghosh": [0.105093, 0.25691], "includesElement__en_pauling": [0.98, 2.2], "includesElement__evaporation_heat": [148.0, 470.0], "includesElement__fusion_heat": [2.89, 21.76], "includesElement__glawe_number": [12, 64], "includesElement__group_id": [1, 10], "includesElement__heat_of_formation": [159.3, 565.7], "includesElement__is_radioactive": [false], "includesElement__lattice_constant": [3.49, 3.92], "includesElement__mendeleev_number": [1, 69], "includesElement__molar_heat_capacity": [24.86, 25.86], "includesElement__period": [2, 6], "includesElement__pettifor_number": [12, 68], "includesElement__specific_heat_capacity": [3.582, 0.133], "includesElement__vdw_radius": [182.0, 213.0], "includesElement__vdw_radius_alvarez": [212.0, 229.0], "includesElement__vdw_radius_mm3": [255.0, 239.0], "includesElement__vdw_radius_uff": [245.1, 275.4], "includesElement__abundance_sea": [0.18], "includesElement__c6_gb": [1410.0, 470.0], "includesElement__covalent_radius_bragg": [150.0], "includesElement__electronegativity_allen": [5.392, 10.16], "includesElement__en_allen": [5.392, 10.16], "includesElement__metallic_radius": [123.0, 130.0], "includesElement__metallic_radius_c12": [155.0, 139.0], "includesElement__thermal_conductivity": [84.8, 71.6], "includesElement__vdw_radius_batsanov": [220.0, 205.0], "includesElement__c6": [1392.0], "includesElement__vdw_radius_bondi": [181.0], "includesElement__covalent_radius_pyykko_triple": [110.0], "includesElement__atomic_weight_uncertainty": [0.009], "formula": ["Li1Pt1"], "spacegroup": ["187"], "thermalConductivity": [5.66839], "icsd": ["104777"], "band_gap": [0.0], "density": [12.31546], "density_atomic": [13.61989], "deprecated": [false], "efermi": [4.345388], "energy_above_hull": [0.0], "energy_per_atom": [-27.59211], "formation_energy_per_atom": [-0.6548988], "homogeneous_poisson": [0.301], "is_gap_direct": [false], "is_magnetic": [false], "is_metal": [true], "is_stable": [true], "nelements": [2], "nsites": [2], "num_magnetic_sites": [0], "num_unique_magnetic_sites": [0], "theoretical": [false], "total_magnetization": [0.0], "total_magnetization_normalized_formula_units": [0.0], "total_magnetization_normalized_vol": [0.0], "uncorrected_energy_per_atom": [-27.59211], "universal_anisotropy": [2.043], "volume": [27.23978], "cbm": [4.3346], "equilibrium_reaction_energy_per_atom": [-0.1091391], "vbm": [4.374]}