{"includesElement": ["", "Rb", "C"], "includesElement___series_id": [3, 1], "includesElement__abundance_crust": [90.0, 200.0], "includesElement__atomic_number": [37, 6], "includesElement__atomic_radius": [235.0, 70.0], "includesElement__atomic_radius_rahm": [240.0, 190.0], "includesElement__atomic_volume": [55.9, 5.3], "includesElement__atomic_weight": [85.4678, 12.011], "includesElement__covalent_radius_cordero": [220.0, 73.0], "includesElement__covalent_radius_pyykko": [210.0, 75.0], "includesElement__covalent_radius_pyykko_double": [202.0, 67.0], "includesElement__density": [1.53, 2.2], "includesElement__dipole_polarizability": [319.8, 11.3], "includesElement__dipole_polarizability_unc": [0.3, 0.2], "includesElement__discovery_year": [1861], "includesElement__electron_affinity": [0.48592, 1.262119], "includesElement__electronegativity_allred-rochow": [4.988662e-05, 0.0005777778], "includesElement__electronegativity_cottrell-sutton": [0.1023533, 0.2081666], "includesElement__electronegativity_ghosh": [0.104686, 0.224776], "includesElement__electronegativity_gordy": [0.01047619, 0.04333333], "includesElement__electronegativity_mulliken": [2.331524, 6.261208], "includesElement__electronegativity_nagle": [0.1462314, 0.7073926], "includesElement__electronegativity_pauling": [0.82, 2.55], "includesElement__electronegativity_sanderson": [0.1764136, 0.427525], "includesElement__en_ghosh": [0.104686, 0.224776], "includesElement__en_pauling": [0.82, 2.55], "includesElement__evaporation_heat": [75.8], "includesElement__fusion_heat": [2.2], "includesElement__glawe_number": [9, 87], "includesElement__group_id": [1, 14], "includesElement__heat_of_formation": [80.9, 716.87], "includesElement__is_radioactive": [false], "includesElement__lattice_constant": [5.59, 3.57], "includesElement__mendeleev_number": [4, 87], "includesElement__molar_heat_capacity": [31.06, 8.517], "includesElement__period": [5, 2], "includesElement__pettifor_number": [9, 95], "includesElement__specific_heat_capacity": [0.363, 0.709], "includesElement__vdw_radius": [303.0, 170.0], "includesElement__vdw_radius_alvarez": [321.0, 177.0], "includesElement__vdw_radius_mm3": [325.0, 204.0], "includesElement__vdw_radius_uff": [411.4, 385.1], "includesElement__abundance_sea": [0.12, 28.0], "includesElement__atomic_weight_uncertainty": [0.0003], "includesElement__c6_gb": [4660.0, 47.9], "includesElement__covalent_radius_bragg": [225.0, 77.0], "includesElement__electronegativity_allen": [4.177, 15.05], "includesElement__en_allen": [4.177, 15.05], "includesElement__metallic_radius": [216.0], "includesElement__metallic_radius_c12": [248.0, 86.0], "includesElement__thermal_conductivity": [58.2, 1.59], "includesElement__vdw_radius_batsanov": [290.0, 170.0], "includesElement__c6": [4769.0, 46.6], "includesElement__vdw_radius_truhlar": [303.0], "includesElement__covalent_radius_pyykko_triple": [60.0], "includesElement__vdw_radius_dreiding": [389.83], "includesElement__vdw_radius_bondi": [170.0], "includesElement__vdw_radius_rt": [177.0], "formula": ["C60Rb6"], "spacegroup": ["204"], "thermalConductivity": [6.75982], "icsd": ["66880"], "band_gap": [0.6839], "density": [2.530049], "density_atomic": [12.26584], "deprecated": [false], "efermi": [3.636704], "energy_above_hull": [0.2440291], "energy_per_atom": [-8.262906], "formation_energy_per_atom": [0.2159299], "is_gap_direct": [false], "is_magnetic": [false], "is_metal": [false], "is_stable": [false], "nelements": [2], "nsites": [66], "num_magnetic_sites": [0], "num_unique_magnetic_sites": [0], "theoretical": [false], "total_magnetization": [0.000285], "total_magnetization_normalized_formula_units": [4.75e-05], "total_magnetization_normalized_vol": [3.520494e-07], "uncorrected_energy_per_atom": [-8.262906], "volume": [809.5455], "cbm": [4.3179], "vbm": [3.634]}