{"includesElement": ["", "Si", "Y", "Ru"], "includesElement___series_id": [5, 8], "includesElement__abundance_crust": [282000.0, 33.0, 0.001], "includesElement__atomic_number": [14, 39, 44], "includesElement__atomic_radius": [110.0, 180.0, 130.0], "includesElement__atomic_radius_rahm": [232.0, 274.0, 237.0], "includesElement__atomic_volume": [12.1, 19.8, 8.3], "includesElement__atomic_weight": [28.085, 88.90584, 101.07], "includesElement__covalent_radius_cordero": [111.0, 190.0, 146.0], "includesElement__covalent_radius_pyykko": [116.0, 163.0, 125.0], "includesElement__covalent_radius_pyykko_double": [107.0, 130.0, 114.0], "includesElement__covalent_radius_pyykko_triple": [102.0, 124.0, 103.0], "includesElement__density": [2.3296, 4.47, 12.1], "includesElement__dipole_polarizability": [37.3, 162.0, 72.0], "includesElement__dipole_polarizability_unc": [0.7, 12.0, 10.0], "includesElement__discovery_year": [1824, 1789, 1844], "includesElement__electron_affinity": [1.389521, 0.307, 1.05], "includesElement__electronegativity_allred-rochow": [0.0003084126, 0.0001129135, 0.000208], "includesElement__electronegativity_cottrell-sutton": [0.1891451, 0.1356647, 0.1612452], "includesElement__electronegativity_ghosh": [0.178503, 0.1216986, 0.1376494], "includesElement__electronegativity_gordy": [0.03577586, 0.01840491, 0.026], "includesElement__electronegativity_mulliken": [4.770602, 3.26213, 4.20525], "includesElement__electronegativity_nagle": [0.4750986, 0.2645668, 0.4807499], "includesElement__electronegativity_pauling": [1.9, 1.22, 2.2], "includesElement__electronegativity_sanderson": [0.3468158, 0.3923941, 0.9579373], "includesElement__en_ghosh": [0.178503, 0.1216986, 0.1376494], "includesElement__en_pauling": [1.9, 1.22, 2.2], "includesElement__evaporation_heat": [383.0, 367.0], "includesElement__fusion_heat": [50.6, 11.5, 25.5], "includesElement__glawe_number": [85, 21, 61], "includesElement__group_id": [14, 3, 8], "includesElement__heat_of_formation": [450.0, 424.7, 650.6], "includesElement__is_radioactive": [false], "includesElement__lattice_constant": [5.43, 3.65, 2.7], "includesElement__mendeleev_number": [88, 12, 60], "includesElement__molar_heat_capacity": [19.99, 26.53, 24.06], "includesElement__period": [3, 5], "includesElement__pettifor_number": [85, 19, 63], "includesElement__specific_heat_capacity": [0.712, 0.298, 0.238], "includesElement__vdw_radius": [210.0, 232.0, 213.0], "includesElement__vdw_radius_alvarez": [219.0, 275.0, 246.0], "includesElement__vdw_radius_mm3": [229.0, 271.0, 234.0], "includesElement__vdw_radius_uff": [429.5, 334.5, 296.3], "includesElement__abundance_sea": [2.2, 1.3e-05, 7e-07], "includesElement__c6_gb": [308.0, 2600.0, 809.0], "includesElement__covalent_radius_bragg": [117.0], "includesElement__electronegativity_allen": [11.33, 6.631, 9.1], "includesElement__en_allen": [11.33, 6.631, 9.1], "includesElement__metallic_radius": [117.0, 162.0, 125.0], "includesElement__metallic_radius_c12": [138.0, 180.0, 134.0], "includesElement__thermal_conductivity": [149.0, 117.0], "includesElement__vdw_radius_batsanov": [210.0, 240.0, 205.0], "includesElement__c6": [305.0], "includesElement__vdw_radius_dreiding": [427.0], "includesElement__gas_basicity": [814.1, 945.9, 751.4], "includesElement__proton_affinity": [837.0, 967.0, 774.0], "includesElement__vdw_radius_bondi": [210.0], "includesElement__atomic_weight_uncertainty": [2e-05, 0.02], "includesElement__is_monoisotopic": [true], "formula": ["Ru6Si4Y2"], "spacegroup": ["191"], "thermalConductivity": [9.34912], "icsd": ["650662"], "band_gap": [0.0], "density": [7.610056], "density_atomic": [16.30294], "deprecated": [false], "efermi": [6.931666], "energy_above_hull": [0.0716522], "energy_per_atom": [-8.191774], "formation_energy_per_atom": [-0.6612844], "is_gap_direct": [false], "is_magnetic": [false], "is_metal": [true], "is_stable": [false], "nelements": [3], "nsites": [6], "num_magnetic_sites": [0], "num_unique_magnetic_sites": [0], "theoretical": [false], "total_magnetization": [0.0168307], "total_magnetization_normalized_formula_units": [0.0168307], "total_magnetization_normalized_vol": [0.000172062], "uncorrected_energy_per_atom": [-8.191774], "volume": [97.81766]}