{"includesElement": ["", "N", "V"], "includesElement___series_id": [1, 8], "includesElement__abundance_crust": [19.0, 120.0], "includesElement__atomic_number": [7, 23], "includesElement__atomic_radius": [65.0, 135.0], "includesElement__atomic_radius_rahm": [179.0, 252.0], "includesElement__atomic_volume": [17.3, 8.35], "includesElement__atomic_weight": [14.007, 50.9415], "includesElement__covalent_radius_cordero": [71.0, 153.0], "includesElement__covalent_radius_pyykko": [71.0, 134.0], "includesElement__covalent_radius_pyykko_double": [60.0, 112.0], "includesElement__covalent_radius_pyykko_triple": [54.0, 106.0], "includesElement__density": [0.001145, 6.0], "includesElement__dipole_polarizability": [7.4, 87.0], "includesElement__dipole_polarizability_unc": [0.2, 10.0], "includesElement__discovery_year": [1772, 1830], "includesElement__electron_affinity": [-1.4, 0.525], "includesElement__electronegativity_allred-rochow": [0.000773656, 0.0001837826], "includesElement__electronegativity_cottrell-sutton": [0.2343706, 0.1569295], "includesElement__electronegativity_ghosh": [0.26493, 0.1273344], "includesElement__electronegativity_gordy": [0.05492958, 0.02462687], "includesElement__electronegativity_mulliken": [6.567065, 3.635594], "includesElement__electronegativity_nagle": [0.8774979, 0.3859078], "includesElement__electronegativity_pauling": [3.04, 1.63], "includesElement__electronegativity_sanderson": [0.577482, 0.4388898], "includesElement__en_ghosh": [0.26493, 0.1273344], "includesElement__en_pauling": [3.04, 1.63], "includesElement__glawe_number": [88, 54], "includesElement__group_id": [15, 5], "includesElement__heat_of_formation": [472.44, 515.5], "includesElement__is_radioactive": [false], "includesElement__lattice_constant": [4.039, 3.02], "includesElement__mendeleev_number": [93, 47], "includesElement__molar_heat_capacity": [29.124, 24.89], "includesElement__period": [2, 4], "includesElement__pettifor_number": [100, 54], "includesElement__specific_heat_capacity": [1.04, 0.489], "includesElement__vdw_radius": [155.0, 207.0], "includesElement__vdw_radius_alvarez": [166.0, 242.0], "includesElement__vdw_radius_mm3": [193.0, 229.0], "includesElement__vdw_radius_uff": [366.0, 314.4], "includesElement__abundance_sea": [0.5, 0.0025], "includesElement__c6_gb": [25.7, 955.0], "includesElement__covalent_radius_bragg": [65.0], "includesElement__electronegativity_allen": [18.13, 9.063], "includesElement__en_allen": [18.13, 9.063], "includesElement__metallic_radius_c12": [53.0, 134.0], "includesElement__thermal_conductivity": [0.026, 30.7], "includesElement__vdw_radius_batsanov": [160.0, 205.0], "includesElement__c6": [24.2, 832.0], "includesElement__vdw_radius_dreiding": [366.21], "includesElement__gas_basicity": [318.7, 836.8], "includesElement__proton_affinity": [342.2, 859.4], "includesElement__vdw_radius_bondi": [155.0], "includesElement__vdw_radius_rt": [164.0], "includesElement__evaporation_heat": [460.0], "includesElement__fusion_heat": [17.5], "includesElement__atomic_weight_uncertainty": [0.0001], "includesElement__metallic_radius": [122.0], "formula": ["N2V2"], "spacegroup": ["194"], "thermalConductivity": [18.5801], "icsd": ["169821"], "band_gap": [0.0], "density": [6.183225], "density_atomic": [8.721098], "deprecated": [false], "efermi": [8.227935], "energy_above_hull": [0.1079618], "energy_per_atom": [-12.85373], "formation_energy_per_atom": [-1.244566], "homogeneous_poisson": [0.228], "is_gap_direct": [false], "is_magnetic": [false], "is_metal": [true], "is_stable": [false], "nelements": [2], "nsites": [4], "num_magnetic_sites": [0], "num_unique_magnetic_sites": [0], "theoretical": [true], "total_magnetization": [6.8e-06], "total_magnetization_normalized_formula_units": [3.4e-06], "total_magnetization_normalized_vol": [1.949296e-07], "uncorrected_energy_per_atom": [-9.76376], "universal_anisotropy": [0.565], "volume": [34.88439]}