{"includesElement": ["", "Zr", "Co"], "includesElement___series_id": [8], "includesElement__abundance_crust": [165.0, 25.0], "includesElement__atomic_number": [40, 27], "includesElement__atomic_radius": [155.0, 135.0], "includesElement__atomic_radius_rahm": [269.0, 233.0], "includesElement__atomic_volume": [14.1, 6.7], "includesElement__atomic_weight": [91.224, 58.93319], "includesElement__covalent_radius_cordero": [175.0, 138.0], "includesElement__covalent_radius_pyykko": [154.0, 111.0], "includesElement__covalent_radius_pyykko_double": [127.0, 103.0], "includesElement__covalent_radius_pyykko_triple": [121.0, 96.0], "includesElement__density": [6.52, 8.86], "includesElement__dipole_polarizability": [112.0, 55.0], "includesElement__dipole_polarizability_unc": [13.0, 4.0], "includesElement__discovery_year": [1789, 1739], "includesElement__electron_affinity": [0.426, 0.6622565], "includesElement__electronegativity_allred-rochow": [0.0001328217, 0.0003165327], "includesElement__electronegativity_cottrell-sutton": [0.1430194, 0.1874437], "includesElement__electronegativity_ghosh": [0.1248887, 0.1432363], "includesElement__electronegativity_gordy": [0.02045455, 0.03513514], "includesElement__electronegativity_mulliken": [3.52995, 4.271633], "includesElement__electronegativity_nagle": [0.3293169, 0.5469655], "includesElement__electronegativity_pauling": [1.33, 1.88], "includesElement__electronegativity_sanderson": [0.4744467, 0.8832424], "includesElement__en_ghosh": [0.1248887, 0.1432363], "includesElement__en_pauling": [1.33, 1.88], "includesElement__evaporation_heat": [567.0, 389.1], "includesElement__fusion_heat": [19.2, 15.48], "includesElement__glawe_number": [49, 70], "includesElement__group_id": [4, 9], "includesElement__heat_of_formation": [610.0, 426.7], "includesElement__is_radioactive": [false], "includesElement__lattice_constant": [3.23, 2.51], "includesElement__mendeleev_number": [44, 63], "includesElement__molar_heat_capacity": [25.36, 24.81], "includesElement__period": [5, 4], "includesElement__pettifor_number": [49, 64], "includesElement__specific_heat_capacity": [0.278, 0.421], "includesElement__vdw_radius": [223.0, 200.0], "includesElement__vdw_radius_alvarez": [252.0, 240.0], "includesElement__vdw_radius_mm3": [254.0, 223.0], "includesElement__vdw_radius_uff": [312.4, 287.2], "includesElement__abundance_sea": [3e-05, 2e-05], "includesElement__atomic_weight_uncertainty": [0.002, 4e-06], "includesElement__c6_gb": [1360.0, 461.0], "includesElement__electronegativity_allen": [7.808, 10.86], "includesElement__en_allen": [7.808, 10.86], "includesElement__metallic_radius": [145.0, 116.0], "includesElement__metallic_radius_c12": [160.0, 125.0], "includesElement__thermal_conductivity": [22.7, 100.0], "includesElement__vdw_radius_batsanov": [230.0, 200.0], "includesElement__covalent_radius_bragg": [137.0], "includesElement__c6": [408.0], "includesElement__is_monoisotopic": [true], "includesElement__gas_basicity": [719.8], "includesElement__proton_affinity": [742.7], "formula": ["Co2Zr4"], "spacegroup": ["140"], "thermalConductivity": [4.48544, 3.04521], "icsd": ["102740", "625671"], "band_gap": [0.0], "density": [7.281142], "density_atomic": [18.34982], "deprecated": [false], "efermi": [4.493785], "energy_above_hull": [0.0436805], "energy_per_atom": [-19.75457], "formation_energy_per_atom": [-0.1766284], "homogeneous_poisson": [0.402], "is_gap_direct": [false], "is_magnetic": [false], "is_metal": [true], "is_stable": [false], "nelements": [2], "nsites": [6], "num_magnetic_sites": [0], "num_unique_magnetic_sites": [0], "theoretical": [false], "total_magnetization": [3.5e-06], "total_magnetization_normalized_formula_units": [1.75e-06], "total_magnetization_normalized_vol": [3.17896e-08], "uncorrected_energy_per_atom": [-19.75457], "universal_anisotropy": [1.62], "volume": [110.0989]}