{"includesElement": ["", "Si", "Co"], "includesElement___series_id": [5, 8], "includesElement__abundance_crust": [282000.0, 25.0], "includesElement__atomic_number": [14, 27], "includesElement__atomic_radius": [110.0, 135.0], "includesElement__atomic_radius_rahm": [232.0, 233.0], "includesElement__atomic_volume": [12.1, 6.7], "includesElement__atomic_weight": [28.085, 58.93319], "includesElement__covalent_radius_cordero": [111.0, 138.0], "includesElement__covalent_radius_pyykko": [116.0, 111.0], "includesElement__covalent_radius_pyykko_double": [107.0, 103.0], "includesElement__covalent_radius_pyykko_triple": [102.0, 96.0], "includesElement__density": [2.3296, 8.86], "includesElement__dipole_polarizability": [37.3, 55.0], "includesElement__dipole_polarizability_unc": [0.7, 4.0], "includesElement__discovery_year": [1824, 1739], "includesElement__electron_affinity": [1.389521, 0.6622565], "includesElement__electronegativity_allred-rochow": [0.0003084126, 0.0003165327], "includesElement__electronegativity_cottrell-sutton": [0.1891451, 0.1874437], "includesElement__electronegativity_ghosh": [0.178503, 0.1432363], "includesElement__electronegativity_gordy": [0.03577586, 0.03513514], "includesElement__electronegativity_mulliken": [4.770602, 4.271633], "includesElement__electronegativity_nagle": [0.4750986, 0.5469655], "includesElement__electronegativity_pauling": [1.9, 1.88], "includesElement__electronegativity_sanderson": [0.3468158, 0.8832424], "includesElement__en_ghosh": [0.178503, 0.1432363], "includesElement__en_pauling": [1.9, 1.88], "includesElement__evaporation_heat": [383.0, 389.1], "includesElement__fusion_heat": [50.6, 15.48], "includesElement__glawe_number": [85, 70], "includesElement__group_id": [14, 9], "includesElement__heat_of_formation": [450.0, 426.7], "includesElement__is_radioactive": [false], "includesElement__lattice_constant": [5.43, 2.51], "includesElement__mendeleev_number": [88, 63], "includesElement__molar_heat_capacity": [19.99, 24.81], "includesElement__period": [3, 4], "includesElement__pettifor_number": [85, 64], "includesElement__specific_heat_capacity": [0.712, 0.421], "includesElement__vdw_radius": [210.0, 200.0], "includesElement__vdw_radius_alvarez": [219.0, 240.0], "includesElement__vdw_radius_mm3": [229.0, 223.0], "includesElement__vdw_radius_uff": [429.5, 287.2], "includesElement__abundance_sea": [2.2, 2e-05], "includesElement__c6_gb": [308.0, 461.0], "includesElement__covalent_radius_bragg": [117.0, 137.0], "includesElement__electronegativity_allen": [11.33, 10.86], "includesElement__en_allen": [11.33, 10.86], "includesElement__metallic_radius": [117.0, 116.0], "includesElement__metallic_radius_c12": [138.0, 125.0], "includesElement__thermal_conductivity": [149.0, 100.0], "includesElement__vdw_radius_batsanov": [210.0, 200.0], "includesElement__c6": [305.0, 408.0], "includesElement__vdw_radius_dreiding": [427.0], "includesElement__gas_basicity": [814.1, 719.8], "includesElement__proton_affinity": [837.0, 742.7], "includesElement__vdw_radius_bondi": [210.0], "includesElement__atomic_weight_uncertainty": [4e-06], "includesElement__is_monoisotopic": [true], "formula": ["Co1Si2"], "spacegroup": ["225"], "thermalConductivity": [10.4523], "icsd": ["27139"], "band_gap": [0.0], "density": [5.098238], "density_atomic": [12.4968], "deprecated": [false], "efermi": [9.491872], "energy_above_hull": [0.0], "energy_per_atom": [-10.67167], "formation_energy_per_atom": [-0.4110784], "homogeneous_poisson": [0.355], "is_gap_direct": [false], "is_magnetic": [false], "is_metal": [true], "is_stable": [true], "nelements": [2], "nsites": [3], "num_magnetic_sites": [0], "num_unique_magnetic_sites": [0], "theoretical": [false], "total_magnetization": [1.2e-06], "total_magnetization_normalized_formula_units": [1.2e-06], "total_magnetization_normalized_vol": [3.200819e-08], "uncorrected_energy_per_atom": [-10.67167], "universal_anisotropy": [0.398], "volume": [37.49041], "equilibrium_reaction_energy_per_atom": [-0.08246154]}