{"includesElement": ["", "S", "Er"], "includesElement___series_id": [1, 9], "includesElement__abundance_crust": [350.0, 3.5], "includesElement__atomic_number": [16, 68], "includesElement__atomic_radius": [100.0, 175.0], "includesElement__atomic_radius_rahm": [214.0, 272.0], "includesElement__atomic_volume": [15.5, 18.4], "includesElement__atomic_weight": [32.06, 167.259], "includesElement__covalent_radius_cordero": [105.0, 189.0], "includesElement__covalent_radius_pyykko": [103.0, 165.0], "includesElement__covalent_radius_pyykko_double": [94.0, 133.0], "includesElement__covalent_radius_pyykko_triple": [95.0], "includesElement__density": [2.07, 9.07], "includesElement__dipole_polarizability": [19.4, 150.0], "includesElement__dipole_polarizability_unc": [0.1, 10.0], "includesElement__electron_affinity": [2.077104], "includesElement__electronegativity_allred-rochow": [0.0005137148, 0.0001046832], "includesElement__electronegativity_cottrell-sutton": [0.2300274, 0.1314257], "includesElement__electronegativity_ghosh": [0.23596, 0.212261], "includesElement__electronegativity_gordy": [0.05291262, 0.01727273], "includesElement__electronegativity_mulliken": [6.218557, 3.05385], "includesElement__electronegativity_nagle": [0.6762644, 0.4536061], "includesElement__electronegativity_pauling": [2.58, 1.24], "includesElement__electronegativity_sanderson": [0.6397251, 0.5576573], "includesElement__en_ghosh": [0.23596, 0.212261], "includesElement__en_pauling": [2.58, 1.24], "includesElement__evaporation_heat": [10.5, 317.0], "includesElement__fusion_heat": [1.23], "includesElement__glawe_number": [96, 22], "includesElement__group_id": [16], "includesElement__heat_of_formation": [277.17, 316.4], "includesElement__is_radioactive": [false], "includesElement__lattice_constant": [10.47, 3.56], "includesElement__mendeleev_number": [100, 35], "includesElement__molar_heat_capacity": [22.7, 28.12], "includesElement__period": [3, 6], "includesElement__pettifor_number": [94, 23], "includesElement__specific_heat_capacity": [0.708, 0.168], "includesElement__vdw_radius": [180.0, 229.0], "includesElement__vdw_radius_alvarez": [189.0, 283.0], "includesElement__vdw_radius_mm3": [215.0, 267.0], "includesElement__vdw_radius_uff": [403.5, 339.1], "includesElement__abundance_sea": [905.0, 8.7e-07], "includesElement__c6_gb": [140.0, 2150.0], "includesElement__covalent_radius_bragg": [102.0], "includesElement__electronegativity_allen": [15.31], "includesElement__en_allen": [15.31], "includesElement__metallic_radius": [104.0], "includesElement__metallic_radius_c12": [127.0], "includesElement__thermal_conductivity": [0.27], "includesElement__vdw_radius_batsanov": [180.0], "includesElement__c6": [134.0], "includesElement__vdw_radius_dreiding": [403.0], "includesElement__gas_basicity": [640.2], "includesElement__proton_affinity": [664.3], "includesElement__vdw_radius_bondi": [180.0], "includesElement__vdw_radius_rt": [181.0], "includesElement__discovery_year": [1843], "includesElement__atomic_weight_uncertainty": [0.003], "formula": ["Er1S1"], "spacegroup": ["225"], "thermalConductivity": [9.23629], "icsd": ["106619"], "band_gap": [0.0], "density": [8.236266], "density_atomic": [20.09316], "deprecated": [false], "efermi": [6.603594], "energy_above_hull": [0.0], "energy_per_atom": [-23.17482], "formation_energy_per_atom": [-2.194605], "homogeneous_poisson": [0.31], "is_gap_direct": [false], "is_magnetic": [false], "is_metal": [true], "is_stable": [true], "nelements": [2], "nsites": [2], "num_magnetic_sites": [0], "num_unique_magnetic_sites": [0], "theoretical": [false], "total_magnetization": [8e-07], "total_magnetization_normalized_formula_units": [8e-07], "total_magnetization_normalized_vol": [1.990727e-08], "uncorrected_energy_per_atom": [-23.17482], "universal_anisotropy": [3.812], "volume": [40.18633], "equilibrium_reaction_energy_per_atom": [-0.1742455]}