{"includesElement": ["", "Ga", "N"], "includesElement___series_id": [7, 1], "includesElement__abundance_crust": [19.0], "includesElement__atomic_number": [31, 7], "includesElement__atomic_radius": [130.0, 65.0], "includesElement__atomic_radius_rahm": [233.0, 179.0], "includesElement__atomic_volume": [11.8, 17.3], "includesElement__atomic_weight": [69.723, 14.007], "includesElement__covalent_radius_cordero": [122.0, 71.0], "includesElement__covalent_radius_pyykko": [124.0, 71.0], "includesElement__covalent_radius_pyykko_double": [117.0, 60.0], "includesElement__covalent_radius_pyykko_triple": [121.0, 54.0], "includesElement__density": [5.91, 0.001145], "includesElement__dipole_polarizability": [50.0, 7.4], "includesElement__dipole_polarizability_unc": [3.0, 0.2], "includesElement__discovery_year": [1875, 1772], "includesElement__electron_affinity": [0.43, -1.4], "includesElement__electronegativity_allred-rochow": [0.0003251821, 0.000773656], "includesElement__electronegativity_cottrell-sutton": [0.2008048, 0.2343706], "includesElement__electronegativity_ghosh": [0.1723773, 0.26493], "includesElement__electronegativity_gordy": [0.04032258, 0.05492958], "includesElement__electronegativity_mulliken": [3.214651, 6.567065], "includesElement__electronegativity_nagle": [0.3914868, 0.8774979], "includesElement__electronegativity_pauling": [1.81, 3.04], "includesElement__electronegativity_sanderson": [0.720541, 0.577482], "includesElement__en_ghosh": [0.1723773, 0.26493], "includesElement__en_pauling": [1.81, 3.04], "includesElement__evaporation_heat": [270.3], "includesElement__fusion_heat": [5.59], "includesElement__glawe_number": [79, 88], "includesElement__group_id": [13, 15], "includesElement__heat_of_formation": [271.96, 472.44], "includesElement__is_radioactive": [false], "includesElement__lattice_constant": [4.51, 4.039], "includesElement__mendeleev_number": [83, 93], "includesElement__molar_heat_capacity": [26.03, 29.124], "includesElement__period": [4, 2], "includesElement__pettifor_number": [81, 100], "includesElement__specific_heat_capacity": [0.373, 1.04], "includesElement__vdw_radius": [187.0, 155.0], "includesElement__vdw_radius_alvarez": [232.0, 166.0], "includesElement__vdw_radius_mm3": [246.0, 193.0], "includesElement__vdw_radius_uff": [438.3, 366.0], "includesElement__abundance_sea": [3e-05, 0.5], "includesElement__atomic_weight_uncertainty": [0.001], "includesElement__c6_gb": [456.0, 25.7], "includesElement__electronegativity_allen": [10.39, 18.13], "includesElement__en_allen": [10.39, 18.13], "includesElement__metallic_radius": [125.0], "includesElement__metallic_radius_c12": [140.0, 53.0], "includesElement__thermal_conductivity": [28.1, 0.026], "includesElement__vdw_radius_batsanov": [210.0, 160.0], "includesElement__c6": [498.0, 24.2], "includesElement__vdw_radius_dreiding": [439.0, 366.21], "includesElement__vdw_radius_bondi": [187.0, 155.0], "includesElement__covalent_radius_bragg": [65.0], "includesElement__gas_basicity": [318.7], "includesElement__proton_affinity": [342.2], "includesElement__vdw_radius_rt": [164.0], "formula": ["Ga1N1", "GaN"], "mp_id": ["mp-830"], "spacegroup": ["216"], "thermalConductivity": [27.8922, 258.0689, 290.0374], "icsd": ["156260"], "band_gap": [1.5701], "density": [6.074711], "density_atomic": [11.44387], "deprecated": [false], "efermi": [3.46241], "energy_above_hull": [0.006731238], "energy_per_atom": [-10.94908], "formation_energy_per_atom": [-0.6633182], "homogeneous_poisson": [0.25], "is_gap_direct": [true], "is_magnetic": [false], "is_metal": [false], "is_stable": [false], "nelements": [2], "nsites": [2], "num_magnetic_sites": [0], "num_unique_magnetic_sites": [0], "theoretical": [true], "total_magnetization": [0.0], "total_magnetization_normalized_formula_units": [0.0], "total_magnetization_normalized_vol": [0.0], "uncorrected_energy_per_atom": [-10.94908], "universal_anisotropy": [0.947], "volume": [22.88775], "cbm": [4.9549], "e_electronic": [6.089275], "e_ionic": [4.875301], "e_total": [10.96458], "n": [2.467646], "vbm": [3.3848], "e_ij_max": [0.1247681]}