{"includesElement": ["", "Mg", "Be"], "includesElement___series_id": [4], "includesElement__abundance_crust": [23300.0, 2.8], "includesElement__atomic_number": [12, 4], "includesElement__atomic_radius": [150.0, 105.0], "includesElement__atomic_radius_rahm": [240.0, 219.0], "includesElement__atomic_volume": [14.0, 5.0], "includesElement__atomic_weight": [24.305, 9.012183], "includesElement__covalent_radius_cordero": [141.0, 96.0], "includesElement__covalent_radius_pyykko": [139.0, 102.0], "includesElement__covalent_radius_pyykko_double": [132.0, 90.0], "includesElement__covalent_radius_pyykko_triple": [127.0, 85.0], "includesElement__density": [1.74, 1.85], "includesElement__dipole_polarizability": [71.2, 37.74], "includesElement__dipole_polarizability_unc": [0.4, 0.03], "includesElement__discovery_year": [1808, 1798], "includesElement__electronegativity_allred-rochow": [0.0001475079, 0.0001874279], "includesElement__electronegativity_cottrell-sutton": [0.1431908, 0.1382666], "includesElement__electronegativity_ghosh": [0.121644, 0.144986], "includesElement__electronegativity_gordy": [0.0205036, 0.01911765], "includesElement__electronegativity_mulliken": [3.823117, 3.461349], "includesElement__electronegativity_nagle": [0.3039835, 0.3756148], "includesElement__electronegativity_pauling": [1.31, 1.57], "includesElement__electronegativity_sanderson": [0.1524211, 0.1268473], "includesElement__en_ghosh": [0.121644, 0.144986], "includesElement__en_pauling": [1.31, 1.57], "includesElement__evaporation_heat": [131.8, 309.0], "includesElement__fusion_heat": [9.2, 12.21], "includesElement__glawe_number": [73, 77], "includesElement__group_id": [2], "includesElement__heat_of_formation": [147.1, 324.0], "includesElement__is_radioactive": [false], "includesElement__lattice_constant": [3.21, 2.29], "includesElement__mendeleev_number": [76, 75], "includesElement__molar_heat_capacity": [24.869, 16.443], "includesElement__period": [3, 2], "includesElement__pettifor_number": [73, 77], "includesElement__specific_heat_capacity": [1.023, 1.825], "includesElement__vdw_radius": [173.0, 153.0], "includesElement__vdw_radius_alvarez": [251.0, 198.0], "includesElement__vdw_radius_mm3": [243.0, 223.0], "includesElement__vdw_radius_uff": [302.1, 274.5], "includesElement__abundance_sea": [1290.0, 5.6e-06], "includesElement__c6_gb": [629.0, 214.0], "includesElement__covalent_radius_bragg": [142.0, 115.0], "includesElement__electronegativity_allen": [7.646, 9.323], "includesElement__en_allen": [7.646, 9.323], "includesElement__metallic_radius": [136.0, 89.0], "includesElement__metallic_radius_c12": [160.0, 112.0], "includesElement__thermal_conductivity": [156.0, 201.0], "includesElement__vdw_radius_batsanov": [220.0, 190.0], "includesElement__c6": [626.0, 227.0], "includesElement__gas_basicity": [797.3], "includesElement__proton_affinity": [819.6], "includesElement__vdw_radius_bondi": [173.0], "includesElement__electron_affinity": [-2.4], "includesElement__atomic_weight_uncertainty": [5e-07], "includesElement__is_monoisotopic": [true], "includesElement__vdw_radius_truhlar": [153.0], "formula": ["Be26Mg2"], "spacegroup": ["226"], "thermalConductivity": [13.4032], "icsd": ["58713"], "band_gap": [0.0], "density": [1.825532], "density_atomic": [9.191274], "deprecated": [false], "efermi": [4.20962], "energy_above_hull": [0.0005214846], "energy_per_atom": [-3.588253], "formation_energy_per_atom": [0.0005214846], "homogeneous_poisson": [0.112], "is_gap_direct": [false], "is_magnetic": [false], "is_metal": [true], "is_stable": [false], "nelements": [2], "nsites": [28], "num_magnetic_sites": [0], "num_unique_magnetic_sites": [0], "theoretical": [false], "total_magnetization": [1e-07], "total_magnetization_normalized_formula_units": [5e-08], "total_magnetization_normalized_vol": [3.885673e-10], "uncorrected_energy_per_atom": [-4.325649], "universal_anisotropy": [0.442], "volume": [257.3557]}