{"includesElement": ["", "Bi", "O"], "includesElement___series_id": [7, 1], "includesElement__abundance_crust": [0.0085, 461000.0], "includesElement__atomic_number": [83, 8], "includesElement__atomic_radius": [160.0, 60.0], "includesElement__atomic_radius_rahm": [250.0, 171.0], "includesElement__atomic_volume": [21.3, 14.0], "includesElement__atomic_weight": [208.9804, 15.999], "includesElement__covalent_radius_cordero": [148.0, 66.0], "includesElement__covalent_radius_pyykko": [151.0, 63.0], "includesElement__covalent_radius_pyykko_double": [141.0, 57.0], "includesElement__covalent_radius_pyykko_triple": [135.0, 53.0], "includesElement__density": [9.79, 0.001308], "includesElement__dipole_polarizability": [48.0, 5.3], "includesElement__dipole_polarizability_unc": [4.0, 0.2], "includesElement__electron_affinity": [0.942362, 1.461113], "includesElement__electronegativity_allred-rochow": [0.0002763037, 0.001146384], "includesElement__electronegativity_cottrell-sutton": [0.2042593, 0.2687419], "includesElement__electronegativity_ghosh": [0.182377, 0.304575], "includesElement__electronegativity_gordy": [0.04172185, 0.07222222], "includesElement__electronegativity_mulliken": [4.113939, 7.539584], "includesElement__electronegativity_nagle": [0.470518, 1.042218], "includesElement__electronegativity_pauling": [1.9, 3.44], "includesElement__electronegativity_sanderson": [0.8136501, 0.9416494], "includesElement__en_ghosh": [0.182377, 0.304575], "includesElement__en_pauling": [1.9, 3.44], "includesElement__evaporation_heat": [172.0], "includesElement__fusion_heat": [11.0], "includesElement__glawe_number": [92, 97], "includesElement__group_id": [15, 16], "includesElement__heat_of_formation": [209.6, 249.229], "includesElement__is_radioactive": [false], "includesElement__lattice_constant": [4.75, 6.83], "includesElement__mendeleev_number": [97, 99], "includesElement__molar_heat_capacity": [25.52, 29.378], "includesElement__period": [6, 2], "includesElement__pettifor_number": [87, 101], "includesElement__specific_heat_capacity": [0.122, 0.918], "includesElement__vdw_radius": [207.0, 152.0], "includesElement__vdw_radius_alvarez": [254.0, 150.0], "includesElement__vdw_radius_mm3": [266.0, 182.0], "includesElement__vdw_radius_uff": [437.0, 350.0], "includesElement__abundance_sea": [2e-05, 857000.0], "includesElement__atomic_weight_uncertainty": [1e-05], "includesElement__c6_gb": [513.0, 16.7], "includesElement__covalent_radius_bragg": [148.0, 65.0], "includesElement__electronegativity_allen": [11.9, 21.36], "includesElement__en_allen": [11.9, 21.36], "includesElement__metallic_radius": [151.0], "includesElement__metallic_radius_c12": [178.0], "includesElement__thermal_conductivity": [7.9, 0.027], "includesElement__vdw_radius_batsanov": [230.0, 155.0], "includesElement__is_monoisotopic": [true], "includesElement__vdw_radius_truhlar": [207.0], "includesElement__discovery_year": [1774], "includesElement__c6": [15.6], "includesElement__vdw_radius_dreiding": [340.46], "includesElement__gas_basicity": [459.6], "includesElement__proton_affinity": [485.2], "includesElement__vdw_radius_bondi": [152.0], "includesElement__vdw_radius_rt": [158.0], "formula": ["Bi1O2"], "spacegroup": ["225"], "thermalConductivity": [5.05798], "icsd": ["52731"], "band_gap": [0.0], "density": [9.561021], "density_atomic": [13.95093], "deprecated": [false], "efermi": [5.425384], "energy_above_hull": [0.1020363], "energy_per_atom": [-5.953047], "formation_energy_per_atom": [-1.371374], "homogeneous_poisson": [0.351], "is_gap_direct": [false], "is_magnetic": [false], "is_metal": [true], "is_stable": [false], "nelements": [2], "nsites": [3], "num_magnetic_sites": [0], "num_unique_magnetic_sites": [0], "theoretical": [false], "total_magnetization": [0.0003209], "total_magnetization_normalized_formula_units": [0.0003209], "total_magnetization_normalized_vol": [7.667351e-06], "uncorrected_energy_per_atom": [-5.495047], "universal_anisotropy": [0.922], "volume": [41.85279]}