{"includesElement": ["", "As", "Tb"], "includesElement___series_id": [5, 9], "includesElement__abundance_crust": [1.8, 1.2], "includesElement__atomic_number": [33, 65], "includesElement__atomic_radius": [115.0, 175.0], "includesElement__atomic_radius_rahm": [231.0, 276.0], "includesElement__atomic_volume": [13.1, 19.2], "includesElement__atomic_weight": [74.92159, 158.9254], "includesElement__covalent_radius_cordero": [119.0, 194.0], "includesElement__covalent_radius_pyykko": [121.0, 168.0], "includesElement__covalent_radius_pyykko_double": [114.0, 135.0], "includesElement__covalent_radius_pyykko_triple": [106.0], "includesElement__density": [5.75, 8.23], "includesElement__dipole_polarizability": [30.0, 170.0], "includesElement__dipole_polarizability_unc": [1.0, 20.0], "includesElement__electron_affinity": [0.804, 1.165], "includesElement__electronegativity_allred-rochow": [0.0004302985, 0.0001009779], "includesElement__electronegativity_cottrell-sutton": [0.22818, 0.130247], "includesElement__electronegativity_ghosh": [0.2068208, 0.198863], "includesElement__electronegativity_gordy": [0.05206612, 0.01696429], "includesElement__electronegativity_mulliken": [5.2965, 3.5144], "includesElement__electronegativity_nagle": [0.5503212, 0.4014652], "includesElement__electronegativity_pauling": [2.18], "includesElement__electronegativity_sanderson": [0.8253373, 0.5163695], "includesElement__en_ghosh": [0.2068208, 0.198863], "includesElement__en_pauling": [2.18], "includesElement__evaporation_heat": [32.4, 389.0], "includesElement__glawe_number": [90, 25], "includesElement__group_id": [15], "includesElement__heat_of_formation": [302.5, 388.7], "includesElement__is_radioactive": [false], "includesElement__lattice_constant": [4.13, 3.6], "includesElement__mendeleev_number": [95, 29], "includesElement__molar_heat_capacity": [24.64, 28.91], "includesElement__period": [4, 6], "includesElement__pettifor_number": [89, 26], "includesElement__specific_heat_capacity": [0.329, 0.182], "includesElement__vdw_radius": [185.0, 233.0], "includesElement__vdw_radius_alvarez": [188.0, 279.0], "includesElement__vdw_radius_mm3": [236.0, 270.0], "includesElement__vdw_radius_uff": [423.0, 345.1], "includesElement__abundance_sea": [0.0037, 1.4e-07], "includesElement__atomic_weight_uncertainty": [6e-06, 2e-05], "includesElement__c6_gb": [260.0, 2590.0], "includesElement__covalent_radius_bragg": [126.0], "includesElement__electronegativity_allen": [13.08], "includesElement__en_allen": [13.08], "includesElement__metallic_radius": [121.0], "includesElement__metallic_radius_c12": [148.0], "includesElement__vdw_radius_batsanov": [205.0], "includesElement__c6": [246.0], "includesElement__is_monoisotopic": [true], "includesElement__vdw_radius_dreiding": [415.0], "includesElement__vdw_radius_bondi": [185.0], "includesElement__discovery_year": [1843], "includesElement__thermal_conductivity": [11.1], "formula": ["As1Tb1"], "spacegroup": ["225"], "thermalConductivity": [14.4989], "icsd": ["611464"], "band_gap": [0.0], "density": [7.801718], "density_atomic": [24.88631], "deprecated": [false], "efermi": [4.189129], "energy_above_hull": [0.0], "energy_per_atom": [-24.78662], "formation_energy_per_atom": [-1.819633], "homogeneous_poisson": [0.227], "is_gap_direct": [false], "is_magnetic": [false], "is_metal": [true], "is_stable": [true], "nelements": [2], "nsites": [2], "num_magnetic_sites": [0], "num_unique_magnetic_sites": [0], "theoretical": [false], "total_magnetization": [1e-07], "total_magnetization_normalized_formula_units": [1e-07], "total_magnetization_normalized_vol": [2.009136e-09], "uncorrected_energy_per_atom": [-24.78662], "universal_anisotropy": [0.697], "volume": [49.77263], "equilibrium_reaction_energy_per_atom": [-1.819633]}