{"includesElement": ["", "Si", "O"], "includesElement___series_id": [5, 1], "includesElement__abundance_crust": [282000.0, 461000.0], "includesElement__atomic_number": [14, 8], "includesElement__atomic_radius": [110.0, 60.0], "includesElement__atomic_radius_rahm": [232.0, 171.0], "includesElement__atomic_volume": [12.1, 14.0], "includesElement__atomic_weight": [28.085, 15.999], "includesElement__covalent_radius_cordero": [111.0, 66.0], "includesElement__covalent_radius_pyykko": [116.0, 63.0], "includesElement__covalent_radius_pyykko_double": [107.0, 57.0], "includesElement__covalent_radius_pyykko_triple": [102.0, 53.0], "includesElement__density": [2.3296, 0.001308], "includesElement__dipole_polarizability": [37.3, 5.3], "includesElement__dipole_polarizability_unc": [0.7, 0.2], "includesElement__discovery_year": [1824, 1774], "includesElement__electron_affinity": [1.389521, 1.461113], "includesElement__electronegativity_allred-rochow": [0.0003084126, 0.001146384], "includesElement__electronegativity_cottrell-sutton": [0.1891451, 0.2687419], "includesElement__electronegativity_ghosh": [0.178503, 0.304575], "includesElement__electronegativity_gordy": [0.03577586, 0.07222222], "includesElement__electronegativity_mulliken": [4.770602, 7.539584], "includesElement__electronegativity_nagle": [0.4750986, 1.042218], "includesElement__electronegativity_pauling": [1.9, 3.44], "includesElement__electronegativity_sanderson": [0.3468158, 0.9416494], "includesElement__en_ghosh": [0.178503, 0.304575], "includesElement__en_pauling": [1.9, 3.44], "includesElement__evaporation_heat": [383.0], "includesElement__fusion_heat": [50.6], "includesElement__glawe_number": [85, 97], "includesElement__group_id": [14, 16], "includesElement__heat_of_formation": [450.0, 249.229], "includesElement__is_radioactive": [false], "includesElement__lattice_constant": [5.43, 6.83], "includesElement__mendeleev_number": [88, 99], "includesElement__molar_heat_capacity": [19.99, 29.378], "includesElement__period": [3, 2], "includesElement__pettifor_number": [85, 101], "includesElement__specific_heat_capacity": [0.712, 0.918], "includesElement__vdw_radius": [210.0, 152.0], "includesElement__vdw_radius_alvarez": [219.0, 150.0], "includesElement__vdw_radius_mm3": [229.0, 182.0], "includesElement__vdw_radius_uff": [429.5, 350.0], "includesElement__abundance_sea": [2.2, 857000.0], "includesElement__c6_gb": [308.0, 16.7], "includesElement__covalent_radius_bragg": [117.0, 65.0], "includesElement__electronegativity_allen": [11.33, 21.36], "includesElement__en_allen": [11.33, 21.36], "includesElement__metallic_radius": [117.0], "includesElement__metallic_radius_c12": [138.0], "includesElement__thermal_conductivity": [149.0, 0.027], "includesElement__vdw_radius_batsanov": [210.0, 155.0], "includesElement__c6": [305.0, 15.6], "includesElement__vdw_radius_dreiding": [427.0, 340.46], "includesElement__gas_basicity": [814.1, 459.6], "includesElement__proton_affinity": [837.0, 485.2], "includesElement__vdw_radius_bondi": [210.0, 152.0], "includesElement__vdw_radius_rt": [158.0], "formula": ["O4Si2"], "spacegroup": ["136"], "thermalConductivity": [46.1115], "icsd": ["10078"], "band_gap": [5.0337], "density": [4.134212], "density_atomic": [8.044446], "deprecated": [false], "efermi": [7.828151], "energy_above_hull": [0.1960637], "energy_per_atom": [-9.74811], "formation_energy_per_atom": [-2.849754], "homogeneous_poisson": [0.203], "is_gap_direct": [true], "is_magnetic": [false], "is_metal": [false], "is_stable": [false], "nelements": [2], "nsites": [6], "num_magnetic_sites": [0], "num_unique_magnetic_sites": [0], "theoretical": [false], "total_magnetization": [0.0], "total_magnetization_normalized_formula_units": [0.0], "total_magnetization_normalized_vol": [0.0], "uncorrected_energy_per_atom": [-7.7202], "universal_anisotropy": [0.667], "volume": [48.26668], "cbm": [12.8264], "vbm": [7.7927]}