{"includesElement": ["", "K", "C"], "includesElement___series_id": [3, 1], "includesElement__abundance_crust": [20900.0, 200.0], "includesElement__atomic_number": [19, 6], "includesElement__atomic_radius": [220.0, 70.0], "includesElement__atomic_radius_rahm": [234.0, 190.0], "includesElement__atomic_volume": [45.3, 5.3], "includesElement__atomic_weight": [39.0983, 12.011], "includesElement__covalent_radius_cordero": [203.0, 73.0], "includesElement__covalent_radius_pyykko": [196.0, 75.0], "includesElement__covalent_radius_pyykko_double": [193.0, 67.0], "includesElement__density": [0.89, 2.2], "includesElement__dipole_polarizability": [289.7, 11.3], "includesElement__dipole_polarizability_unc": [0.3, 0.2], "includesElement__discovery_year": [1807], "includesElement__electron_affinity": [0.50147, 1.262119], "includesElement__electronegativity_allred-rochow": [5.726781e-05, 0.0005777778], "includesElement__electronegativity_cottrell-sutton": [0.1059457, 0.2081666], "includesElement__electronegativity_ghosh": [0.0981896, 0.224776], "includesElement__electronegativity_gordy": [0.01122449, 0.04333333], "includesElement__electronegativity_mulliken": [2.421067, 6.261208], "includesElement__electronegativity_nagle": [0.1511299, 0.7073926], "includesElement__electronegativity_pauling": [0.82, 2.55], "includesElement__electronegativity_sanderson": [0.1218383, 0.427525], "includesElement__en_ghosh": [0.0981896, 0.224776], "includesElement__en_pauling": [0.82, 2.55], "includesElement__evaporation_heat": [2.33], "includesElement__fusion_heat": [102.5], "includesElement__glawe_number": [10, 87], "includesElement__group_id": [1, 14], "includesElement__heat_of_formation": [89.0, 716.87], "includesElement__is_radioactive": [false], "includesElement__lattice_constant": [5.23, 3.57], "includesElement__mendeleev_number": [3, 87], "includesElement__molar_heat_capacity": [29.6, 8.517], "includesElement__period": [4, 2], "includesElement__pettifor_number": [10, 95], "includesElement__specific_heat_capacity": [0.757, 0.709], "includesElement__vdw_radius": [275.0, 170.0], "includesElement__vdw_radius_alvarez": [273.0, 177.0], "includesElement__vdw_radius_mm3": [309.0, 204.0], "includesElement__vdw_radius_uff": [381.2, 385.1], "includesElement__abundance_sea": [399.0, 28.0], "includesElement__atomic_weight_uncertainty": [0.0001], "includesElement__c6_gb": [3910.0, 47.9], "includesElement__covalent_radius_bragg": [207.0, 77.0], "includesElement__electronegativity_allen": [4.34, 15.05], "includesElement__en_allen": [4.34, 15.05], "includesElement__metallic_radius": [203.0], "includesElement__metallic_radius_c12": [235.0, 86.0], "includesElement__thermal_conductivity": [79.0, 1.59], "includesElement__vdw_radius_batsanov": [280.0, 170.0], "includesElement__c6": [3923.0, 46.6], "includesElement__vdw_radius_bondi": [275.0, 170.0], "includesElement__covalent_radius_pyykko_triple": [60.0], "includesElement__vdw_radius_dreiding": [389.83], "includesElement__vdw_radius_rt": [177.0], "formula": ["C60K6"], "spacegroup": ["204"], "thermalConductivity": [6.19389], "icsd": ["66879"], "band_gap": [0.6087], "density": [2.06402], "density_atomic": [11.64394], "deprecated": [false], "efermi": [3.78691], "energy_above_hull": [0.2474841], "energy_per_atom": [-8.268034], "formation_energy_per_atom": [0.2245136], "is_gap_direct": [false], "is_magnetic": [false], "is_metal": [false], "is_stable": [false], "nelements": [2], "nsites": [66], "num_magnetic_sites": [0], "num_unique_magnetic_sites": [0], "theoretical": [false], "total_magnetization": [0.0008297], "total_magnetization_normalized_formula_units": [0.0001382833], "total_magnetization_normalized_vol": [1.079636e-06], "uncorrected_energy_per_atom": [-8.268034], "volume": [768.5], "cbm": [4.3493], "vbm": [3.7406]}