{"includesElement": ["", "As", "Mg"], "includesElement___series_id": [5, 4], "includesElement__abundance_crust": [1.8, 23300.0], "includesElement__atomic_number": [33, 12], "includesElement__atomic_radius": [115.0, 150.0], "includesElement__atomic_radius_rahm": [231.0, 240.0], "includesElement__atomic_volume": [13.1, 14.0], "includesElement__atomic_weight": [74.92159, 24.305], "includesElement__covalent_radius_cordero": [119.0, 141.0], "includesElement__covalent_radius_pyykko": [121.0, 139.0], "includesElement__covalent_radius_pyykko_double": [114.0, 132.0], "includesElement__covalent_radius_pyykko_triple": [106.0, 127.0], "includesElement__density": [5.75, 1.74], "includesElement__dipole_polarizability": [30.0, 71.2], "includesElement__dipole_polarizability_unc": [1.0, 0.4], "includesElement__electron_affinity": [0.804], "includesElement__electronegativity_allred-rochow": [0.0004302985, 0.0001475079], "includesElement__electronegativity_cottrell-sutton": [0.22818, 0.1431908], "includesElement__electronegativity_ghosh": [0.2068208, 0.121644], "includesElement__electronegativity_gordy": [0.05206612, 0.0205036], "includesElement__electronegativity_mulliken": [5.2965, 3.823117], "includesElement__electronegativity_nagle": [0.5503212, 0.3039835], "includesElement__electronegativity_pauling": [2.18, 1.31], "includesElement__electronegativity_sanderson": [0.8253373, 0.1524211], "includesElement__en_ghosh": [0.2068208, 0.121644], "includesElement__en_pauling": [2.18, 1.31], "includesElement__evaporation_heat": [32.4, 131.8], "includesElement__glawe_number": [90, 73], "includesElement__group_id": [15, 2], "includesElement__heat_of_formation": [302.5, 147.1], "includesElement__is_radioactive": [false], "includesElement__lattice_constant": [4.13, 3.21], "includesElement__mendeleev_number": [95, 76], "includesElement__molar_heat_capacity": [24.64, 24.869], "includesElement__period": [4, 3], "includesElement__pettifor_number": [89, 73], "includesElement__specific_heat_capacity": [0.329, 1.023], "includesElement__vdw_radius": [185.0, 173.0], "includesElement__vdw_radius_alvarez": [188.0, 251.0], "includesElement__vdw_radius_mm3": [236.0, 243.0], "includesElement__vdw_radius_uff": [423.0, 302.1], "includesElement__abundance_sea": [0.0037, 1290.0], "includesElement__atomic_weight_uncertainty": [6e-06], "includesElement__c6_gb": [260.0, 629.0], "includesElement__covalent_radius_bragg": [126.0, 142.0], "includesElement__electronegativity_allen": [13.08, 7.646], "includesElement__en_allen": [13.08, 7.646], "includesElement__metallic_radius": [121.0, 136.0], "includesElement__metallic_radius_c12": [148.0, 160.0], "includesElement__vdw_radius_batsanov": [205.0, 220.0], "includesElement__c6": [246.0, 626.0], "includesElement__is_monoisotopic": [true], "includesElement__vdw_radius_dreiding": [415.0], "includesElement__vdw_radius_bondi": [185.0, 173.0], "includesElement__discovery_year": [1808], "includesElement__fusion_heat": [9.2], "includesElement__thermal_conductivity": [156.0], "includesElement__gas_basicity": [797.3], "includesElement__proton_affinity": [819.6], "formula": ["As4Mg6"], "spacegroup": ["224"], "thermalConductivity": [3.33101], "icsd": ["24485"], "band_gap": [0.5454], "density": [3.074935], "density_atomic": [24.05896], "deprecated": [false], "efermi": [2.846042], "energy_above_hull": [0.1657438], "energy_per_atom": [-9.006406], "formation_energy_per_atom": [-0.6218114], "is_gap_direct": [false], "is_magnetic": [false], "is_metal": [false], "is_stable": [false], "nelements": [2], "nsites": [10], "num_magnetic_sites": [0], "num_unique_magnetic_sites": [0], "theoretical": [false], "total_magnetization": [0.0], "total_magnetization_normalized_formula_units": [0.0], "total_magnetization_normalized_vol": [0.0], "uncorrected_energy_per_atom": [-3.284198], "volume": [240.5896], "cbm": [3.3329], "vbm": [2.7875]}