{"includesElement": ["", "Li", "Br"], "includesElement___series_id": [3, 6], "includesElement__abundance_crust": [20.0, 2.4], "includesElement__atomic_number": [3, 35], "includesElement__atomic_radius": [145.0, 115.0], "includesElement__atomic_radius_rahm": [220.0, 219.0], "includesElement__atomic_volume": [13.1, 23.5], "includesElement__atomic_weight": [6.94, 79.904], "includesElement__covalent_radius_cordero": [128.0, 120.0], "includesElement__covalent_radius_pyykko": [133.0, 114.0], "includesElement__covalent_radius_pyykko_double": [124.0, 109.0], "includesElement__density": [0.534, 3.1028], "includesElement__dipole_polarizability": [164.1125, 21.0], "includesElement__dipole_polarizability_unc": [0.0005, 1.0], "includesElement__discovery_year": [1817, 1826], "includesElement__electron_affinity": [0.618049, 3.363588], "includesElement__electronegativity_allred-rochow": [7.3492e-05, 0.0005847953], "includesElement__electronegativity_cottrell-sutton": [0.09886575, 0.2581989], "includesElement__electronegativity_ghosh": [0.105093, 0.2412578], "includesElement__electronegativity_gordy": [0.009774436, 0.06666667], "includesElement__electronegativity_mulliken": [3.004882, 7.588699], "includesElement__electronegativity_nagle": [0.1826499, 0.6933613], "includesElement__electronegativity_pauling": [0.98, 2.96], "includesElement__electronegativity_sanderson": [0.04886793, 1.049026], "includesElement__en_ghosh": [0.105093, 0.2412578], "includesElement__en_pauling": [0.98, 2.96], "includesElement__evaporation_heat": [148.0, 29.56], "includesElement__fusion_heat": [2.89, 10.57], "includesElement__glawe_number": [12, 100], "includesElement__group_id": [1, 17], "includesElement__heat_of_formation": [159.3, 111.85], "includesElement__is_radioactive": [false], "includesElement__lattice_constant": [3.49, 6.67], "includesElement__mendeleev_number": [1, 108], "includesElement__molar_heat_capacity": [24.86, 75.69], "includesElement__period": [2, 4], "includesElement__pettifor_number": [12, 98], "includesElement__specific_heat_capacity": [3.582, 0.474], "includesElement__vdw_radius": [182.0, 185.0], "includesElement__vdw_radius_alvarez": [212.0, 186.0], "includesElement__vdw_radius_mm3": [255.0, 222.0], "includesElement__vdw_radius_uff": [245.1, 418.9], "includesElement__abundance_sea": [0.18, 67.3], "includesElement__c6_gb": [1410.0, 187.0], "includesElement__covalent_radius_bragg": [150.0, 119.0], "includesElement__electronegativity_allen": [5.392, 15.88], "includesElement__en_allen": [5.392, 15.88], "includesElement__metallic_radius": [123.0], "includesElement__metallic_radius_c12": [155.0, 117.0], "includesElement__thermal_conductivity": [84.8, 0.005], "includesElement__vdw_radius_batsanov": [220.0, 190.0], "includesElement__c6": [1392.0, 162.0], "includesElement__vdw_radius_bondi": [181.0, 183.0], "includesElement__covalent_radius_pyykko_triple": [110.0], "includesElement__vdw_radius_dreiding": [395.0], "includesElement__gas_basicity": [531.2], "includesElement__proton_affinity": [554.4], "includesElement__vdw_radius_rt": [187.0], "formula": ["Br1Li1", "BrLi"], "mp_id": ["mp-23259"], "spacegroup": ["225"], "thermalConductivity": [2.24885, 2.935632, 3.018642], "icsd": ["27982"], "band_gap": [4.9234], "density": [3.572474], "density_atomic": [20.18343], "deprecated": [false], "efermi": [0.00702417], "energy_above_hull": [0.009895713], "energy_per_atom": [-9.576277], "formation_energy_per_atom": [-1.80724], "homogeneous_poisson": [0.24], "is_gap_direct": [false], "is_magnetic": [false], "is_metal": [false], "is_stable": [false], "nelements": [2], "nsites": [2], "num_magnetic_sites": [0], "num_unique_magnetic_sites": [0], "theoretical": [false], "total_magnetization": [0.0], "total_magnetization_normalized_formula_units": [0.0], "total_magnetization_normalized_vol": [0.0], "uncorrected_energy_per_atom": [-9.576277], "universal_anisotropy": [0.184], "volume": [40.36685], "cbm": [4.7796], "e_electronic": [3.696714], "e_ionic": [7.699813], "e_total": [11.39653], "n": [1.922684], "vbm": [-0.1438]}