{"includesElement": ["", "P", "Y"], "includesElement___series_id": [1, 8], "includesElement__abundance_crust": [1050.0, 33.0], "includesElement__atomic_number": [15, 39], "includesElement__atomic_radius": [100.0, 180.0], "includesElement__atomic_radius_rahm": [223.0, 274.0], "includesElement__atomic_volume": [17.0, 19.8], "includesElement__atomic_weight": [30.97376, 88.90584], "includesElement__covalent_radius_cordero": [107.0, 190.0], "includesElement__covalent_radius_pyykko": [111.0, 163.0], "includesElement__covalent_radius_pyykko_double": [102.0, 130.0], "includesElement__covalent_radius_pyykko_triple": [94.0, 124.0], "includesElement__density": [1.823, 4.47], "includesElement__dipole_polarizability": [25.0, 162.0], "includesElement__dipole_polarizability_unc": [1.0, 12.0], "includesElement__discovery_year": [1669, 1789], "includesElement__electron_affinity": [0.746607, 0.307], "includesElement__electronegativity_allred-rochow": [0.0003895788, 0.0001129135], "includesElement__electronegativity_cottrell-sutton": [0.2079501, 0.1356647], "includesElement__electronegativity_ghosh": [0.206931, 0.1216986], "includesElement__electronegativity_gordy": [0.04324324, 0.01840491], "includesElement__electronegativity_mulliken": [5.616646, 3.26213], "includesElement__electronegativity_nagle": [0.5848035, 0.2645668], "includesElement__electronegativity_pauling": [2.19, 1.22], "includesElement__electronegativity_sanderson": [0.4510269, 0.3923941], "includesElement__en_ghosh": [0.206931, 0.1216986], "includesElement__en_pauling": [2.19, 1.22], "includesElement__evaporation_heat": [49.8, 367.0], "includesElement__fusion_heat": [2.51, 11.5], "includesElement__glawe_number": [89, 21], "includesElement__group_id": [15, 3], "includesElement__heat_of_formation": [316.5, 424.7], "includesElement__is_radioactive": [false], "includesElement__lattice_constant": [7.17, 3.65], "includesElement__mendeleev_number": [94, 12], "includesElement__molar_heat_capacity": [23.824, 26.53], "includesElement__period": [3, 5], "includesElement__pettifor_number": [90, 19], "includesElement__specific_heat_capacity": [0.769, 0.298], "includesElement__vdw_radius": [180.0, 232.0], "includesElement__vdw_radius_alvarez": [190.0, 275.0], "includesElement__vdw_radius_mm3": [222.0, 271.0], "includesElement__vdw_radius_uff": [414.7, 334.5], "includesElement__abundance_sea": [0.06, 1.3e-05], "includesElement__atomic_weight_uncertainty": [5e-09, 2e-05], "includesElement__c6_gb": [187.0, 2600.0], "includesElement__electronegativity_allen": [13.33, 6.631], "includesElement__en_allen": [13.33, 6.631], "includesElement__metallic_radius": [110.0, 162.0], "includesElement__metallic_radius_c12": [128.0, 180.0], "includesElement__vdw_radius_batsanov": [195.0, 240.0], "includesElement__c6": [185.0], "includesElement__is_monoisotopic": [true], "includesElement__vdw_radius_dreiding": [415.0], "includesElement__gas_basicity": [604.8, 945.9], "includesElement__proton_affinity": [626.8, 967.0], "includesElement__vdw_radius_bondi": [180.0], "formula": ["P1Y1"], "spacegroup": ["225"], "thermalConductivity": [24.88], "icsd": ["160144"], "band_gap": [0.0], "density": [4.341955], "density_atomic": [22.9234], "deprecated": [false], "efermi": [4.696799], "energy_above_hull": [0.0], "energy_per_atom": [-16.51499], "formation_energy_per_atom": [-1.857153], "homogeneous_poisson": [0.221], "is_gap_direct": [false], "is_magnetic": [false], "is_metal": [true], "is_stable": [true], "nelements": [2], "nsites": [2], "num_magnetic_sites": [0], "num_unique_magnetic_sites": [0], "theoretical": [false], "total_magnetization": [7e-07], "total_magnetization_normalized_formula_units": [7e-07], "total_magnetization_normalized_vol": [1.526824e-08], "uncorrected_energy_per_atom": [-16.51499], "universal_anisotropy": [0.448], "volume": [45.84681], "equilibrium_reaction_energy_per_atom": [-1.473634]}