{"includesElement": ["", "Hg", "La"], "includesElement___series_id": [8, 9], "includesElement__abundance_crust": [0.085, 39.0], "includesElement__atomic_number": [80, 57], "includesElement__atomic_radius": [150.0, 195.0], "includesElement__atomic_radius_rahm": [229.0, 284.0], "includesElement__atomic_volume": [14.8, 22.5], "includesElement__atomic_weight": [200.592, 138.9055], "includesElement__covalent_radius_cordero": [132.0, 207.0], "includesElement__covalent_radius_pyykko": [133.0, 180.0], "includesElement__covalent_radius_pyykko_double": [142.0, 139.0], "includesElement__density": [13.5336, 6.15], "includesElement__dipole_polarizability": [33.91, 215.0], "includesElement__dipole_polarizability_unc": [0.34, 20.0], "includesElement__electronegativity_allred-rochow": [0.0002459155, 9.259259e-05], "includesElement__electronegativity_cottrell-sutton": [0.1808501, 0.1290994], "includesElement__electronegativity_ghosh": [0.169, 0.163142], "includesElement__electronegativity_gordy": [0.03270677, 0.01666667], "includesElement__electronegativity_mulliken": [5.218752, 3.02345], "includesElement__electronegativity_nagle": [0.7073231, 0.240747], "includesElement__electronegativity_pauling": [1.9, 1.1], "includesElement__electronegativity_sanderson": [1.164789, 0.3946505], "includesElement__en_ghosh": [0.169, 0.163142], "includesElement__en_pauling": [1.9, 1.1], "includesElement__evaporation_heat": [58.5, 402.0], "includesElement__fusion_heat": [2.295, 8.5], "includesElement__glawe_number": [76, 32], "includesElement__group_id": [12, 3], "includesElement__heat_of_formation": [61.38, 431.0], "includesElement__is_radioactive": [false], "includesElement__lattice_constant": [2.99, 3.75], "includesElement__mendeleev_number": [79, 13], "includesElement__molar_heat_capacity": [27.983, 27.11], "includesElement__period": [6], "includesElement__pettifor_number": [74, 33], "includesElement__specific_heat_capacity": [0.14, 0.195], "includesElement__vdw_radius": [223.0, 243.0], "includesElement__vdw_radius_alvarez": [245.0, 298.0], "includesElement__vdw_radius_mm3": [253.0, 278.0], "includesElement__vdw_radius_uff": [270.5, 352.2], "includesElement__abundance_sea": [3e-05, 3.4e-06], "includesElement__atomic_weight_uncertainty": [0.003, 7e-05], "includesElement__c6_gb": [268.0, 3730.0], "includesElement__electronegativity_allen": [10.44], "includesElement__en_allen": [10.44], "includesElement__metallic_radius": [139.0, 169.0], "includesElement__metallic_radius_c12": [151.0, 187.0], "includesElement__thermal_conductivity": [8.3, 13.4], "includesElement__vdw_radius_batsanov": [205.0, 250.0], "includesElement__covalent_radius_pyykko_triple": [139.0], "includesElement__discovery_year": [1839], "includesElement__electron_affinity": [0.47], "includesElement__gas_basicity": [991.9], "includesElement__proton_affinity": [1013.0], "formula": ["Hg1La1"], "spacegroup": ["221"], "thermalConductivity": [2.09781], "icsd": ["104305"], "band_gap": [0.0], "density": [9.51873], "density_atomic": [29.61243], "deprecated": [false], "efermi": [6.24359], "energy_above_hull": [0.0], "energy_per_atom": [-40.13556], "formation_energy_per_atom": [-0.5792651], "is_gap_direct": [false], "is_magnetic": [false], "is_metal": [true], "is_stable": [true], "nelements": [2], "nsites": [2], "num_magnetic_sites": [0], "num_unique_magnetic_sites": [0], "theoretical": [false], "total_magnetization": [0.2516041], "total_magnetization_normalized_formula_units": [0.2516041], "total_magnetization_normalized_vol": [0.004248285], "uncorrected_energy_per_atom": [-40.13556], "volume": [59.22487], "equilibrium_reaction_energy_per_atom": [-0.1460612]}