{"includesElement": ["", "As", "Ho"], "includesElement___series_id": [5, 9], "includesElement__abundance_crust": [1.8, 1.3], "includesElement__atomic_number": [33, 67], "includesElement__atomic_radius": [115.0, 175.0], "includesElement__atomic_radius_rahm": [231.0, 273.0], "includesElement__atomic_volume": [13.1, 18.7], "includesElement__atomic_weight": [74.92159, 164.9303], "includesElement__covalent_radius_cordero": [119.0, 192.0], "includesElement__covalent_radius_pyykko": [121.0, 166.0], "includesElement__covalent_radius_pyykko_double": [114.0, 133.0], "includesElement__covalent_radius_pyykko_triple": [106.0], "includesElement__density": [5.75, 8.8], "includesElement__dipole_polarizability": [30.0, 156.0], "includesElement__dipole_polarizability_unc": [1.0, 10.0], "includesElement__electron_affinity": [0.804], "includesElement__electronegativity_allred-rochow": [0.0004302985, 0.0001034258], "includesElement__electronegativity_cottrell-sutton": [0.22818, 0.1310293], "includesElement__electronegativity_ghosh": [0.2068208, 0.207795], "includesElement__electronegativity_gordy": [0.05206612, 0.01716867], "includesElement__electronegativity_mulliken": [5.2965, 3.01075], "includesElement__electronegativity_nagle": [0.5503212, 0.4367902], "includesElement__electronegativity_pauling": [2.18, 1.23], "includesElement__electronegativity_sanderson": [0.8253373, 0.5434919], "includesElement__en_ghosh": [0.2068208, 0.207795], "includesElement__en_pauling": [2.18, 1.23], "includesElement__evaporation_heat": [32.4, 301.0], "includesElement__glawe_number": [90, 23], "includesElement__group_id": [15], "includesElement__heat_of_formation": [302.5, 300.6], "includesElement__is_radioactive": [false], "includesElement__lattice_constant": [4.13, 3.58], "includesElement__mendeleev_number": [95, 33], "includesElement__molar_heat_capacity": [24.64, 27.15], "includesElement__period": [4, 6], "includesElement__pettifor_number": [89, 24], "includesElement__specific_heat_capacity": [0.329, 0.165], "includesElement__vdw_radius": [185.0, 230.0], "includesElement__vdw_radius_alvarez": [188.0, 281.0], "includesElement__vdw_radius_mm3": [236.0, 267.0], "includesElement__vdw_radius_uff": [423.0, 340.9], "includesElement__abundance_sea": [0.0037, 2.2e-07], "includesElement__atomic_weight_uncertainty": [6e-06, 2e-05], "includesElement__c6_gb": [260.0, 2280.0], "includesElement__covalent_radius_bragg": [126.0], "includesElement__electronegativity_allen": [13.08], "includesElement__en_allen": [13.08], "includesElement__metallic_radius": [121.0], "includesElement__metallic_radius_c12": [148.0], "includesElement__vdw_radius_batsanov": [205.0], "includesElement__c6": [246.0], "includesElement__is_monoisotopic": [true], "includesElement__vdw_radius_dreiding": [415.0], "includesElement__vdw_radius_bondi": [185.0], "includesElement__discovery_year": [1878], "formula": ["As1Ho1"], "spacegroup": ["225"], "thermalConductivity": [14.6724], "icsd": ["187363"], "band_gap": [0.0], "density": [8.255766], "density_atomic": [24.12153], "deprecated": [false], "efermi": [4.14472], "energy_above_hull": [0.0], "energy_per_atom": [-25.59306], "formation_energy_per_atom": [-1.798619], "homogeneous_poisson": [0.219], "is_gap_direct": [false], "is_magnetic": [false], "is_metal": [true], "is_stable": [true], "nelements": [2], "nsites": [2], "num_magnetic_sites": [0], "num_unique_magnetic_sites": [0], "theoretical": [false], "total_magnetization": [8e-07], "total_magnetization_normalized_formula_units": [8e-07], "total_magnetization_normalized_vol": [1.658269e-08], "uncorrected_energy_per_atom": [-25.59306], "universal_anisotropy": [0.61], "volume": [48.24307], "equilibrium_reaction_energy_per_atom": [-1.798619]}