{"includesElement": ["", "Cu", "Br"], "includesElement___series_id": [8, 6], "includesElement__abundance_crust": [60.0, 2.4], "includesElement__atomic_number": [29, 35], "includesElement__atomic_radius": [135.0, 115.0], "includesElement__atomic_radius_rahm": [217.0, 219.0], "includesElement__atomic_volume": [7.1, 23.5], "includesElement__atomic_weight": [63.546, 79.904], "includesElement__covalent_radius_cordero": [132.0, 120.0], "includesElement__covalent_radius_pyykko": [112.0, 114.0], "includesElement__covalent_radius_pyykko_double": [115.0, 109.0], "includesElement__covalent_radius_pyykko_triple": [120.0, 110.0], "includesElement__density": [8.96, 3.1028], "includesElement__dipole_polarizability": [46.5, 21.0], "includesElement__dipole_polarizability_unc": [0.5, 1.0], "includesElement__electron_affinity": [1.235, 3.363588], "includesElement__electronegativity_allred-rochow": [0.0002949617, 0.0005847953], "includesElement__electronegativity_cottrell-sutton": [0.1817573, 0.2581989], "includesElement__electronegativity_ghosh": [0.1511716, 0.2412578], "includesElement__electronegativity_gordy": [0.03303571, 0.06666667], "includesElement__electronegativity_mulliken": [4.48069, 7.588699], "includesElement__electronegativity_nagle": [0.6184623, 0.6933613], "includesElement__electronegativity_pauling": [1.9, 2.96], "includesElement__electronegativity_sanderson": [0.9175542, 1.049026], "includesElement__en_ghosh": [0.1511716, 0.2412578], "includesElement__en_pauling": [1.9, 2.96], "includesElement__evaporation_heat": [304.6, 29.56], "includesElement__fusion_heat": [13.01, 10.57], "includesElement__glawe_number": [68, 100], "includesElement__group_id": [11, 17], "includesElement__heat_of_formation": [337.4, 111.85], "includesElement__is_radioactive": [false], "includesElement__lattice_constant": [3.61, 6.67], "includesElement__mendeleev_number": [71, 108], "includesElement__molar_heat_capacity": [24.44, 75.69], "includesElement__period": [4], "includesElement__pettifor_number": [72, 98], "includesElement__specific_heat_capacity": [0.385, 0.474], "includesElement__vdw_radius": [196.0, 185.0], "includesElement__vdw_radius_alvarez": [238.0, 186.0], "includesElement__vdw_radius_mm3": [226.0, 222.0], "includesElement__vdw_radius_uff": [349.5, 418.9], "includesElement__abundance_sea": [0.00025, 67.3], "includesElement__atomic_weight_uncertainty": [0.003], "includesElement__c6_gb": [264.0, 187.0], "includesElement__covalent_radius_bragg": [137.0, 119.0], "includesElement__electronegativity_allen": [10.96, 15.88], "includesElement__en_allen": [10.96, 15.88], "includesElement__metallic_radius": [118.0], "includesElement__metallic_radius_c12": [128.0, 117.0], "includesElement__thermal_conductivity": [401.0, 0.005], "includesElement__vdw_radius_batsanov": [200.0, 190.0], "includesElement__c6": [253.0, 162.0], "includesElement__gas_basicity": [632.4, 531.2], "includesElement__proton_affinity": [655.3, 554.4], "includesElement__discovery_year": [1826], "includesElement__vdw_radius_dreiding": [395.0], "includesElement__vdw_radius_bondi": [183.0], "includesElement__vdw_radius_rt": [187.0], "formula": ["Br8Cu8"], "spacegroup": ["205"], "thermalConductivity": [0.427473], "icsd": ["78278"], "band_gap": [0.1702], "density": [5.721806], "density_atomic": [20.81548], "deprecated": [false], "efermi": [3.669248], "energy_above_hull": [0.06149506], "energy_per_atom": [-3.324194], "formation_energy_per_atom": [-0.4980763], "is_gap_direct": [true], "is_magnetic": [false], "is_metal": [false], "is_stable": [false], "nelements": [2], "nsites": [16], "num_magnetic_sites": [0], "num_unique_magnetic_sites": [0], "theoretical": [false], "total_magnetization": [0.0006547], "total_magnetization_normalized_formula_units": [8.18375e-05], "total_magnetization_normalized_vol": [1.965784e-06], "uncorrected_energy_per_atom": [-3.057194], "volume": [333.0477], "cbm": [3.7621], "vbm": [3.5919]}