{"includesElement": ["", "V", "Co"], "includesElement___series_id": [8], "includesElement__abundance_crust": [120.0, 25.0], "includesElement__atomic_number": [23, 27], "includesElement__atomic_radius": [135.0], "includesElement__atomic_radius_rahm": [252.0, 233.0], "includesElement__atomic_volume": [8.35, 6.7], "includesElement__atomic_weight": [50.9415, 58.93319], "includesElement__covalent_radius_cordero": [153.0, 138.0], "includesElement__covalent_radius_pyykko": [134.0, 111.0], "includesElement__covalent_radius_pyykko_double": [112.0, 103.0], "includesElement__covalent_radius_pyykko_triple": [106.0, 96.0], "includesElement__density": [6.0, 8.86], "includesElement__dipole_polarizability": [87.0, 55.0], "includesElement__dipole_polarizability_unc": [10.0, 4.0], "includesElement__discovery_year": [1830, 1739], "includesElement__electron_affinity": [0.525, 0.6622565], "includesElement__electronegativity_allred-rochow": [0.0001837826, 0.0003165327], "includesElement__electronegativity_cottrell-sutton": [0.1569295, 0.1874437], "includesElement__electronegativity_ghosh": [0.1273344, 0.1432363], "includesElement__electronegativity_gordy": [0.02462687, 0.03513514], "includesElement__electronegativity_mulliken": [3.635594, 4.271633], "includesElement__electronegativity_nagle": [0.3859078, 0.5469655], "includesElement__electronegativity_pauling": [1.63, 1.88], "includesElement__electronegativity_sanderson": [0.4388898, 0.8832424], "includesElement__en_ghosh": [0.1273344, 0.1432363], "includesElement__en_pauling": [1.63, 1.88], "includesElement__evaporation_heat": [460.0, 389.1], "includesElement__fusion_heat": [17.5, 15.48], "includesElement__glawe_number": [54, 70], "includesElement__group_id": [5, 9], "includesElement__heat_of_formation": [515.5, 426.7], "includesElement__is_radioactive": [false], "includesElement__lattice_constant": [3.02, 2.51], "includesElement__mendeleev_number": [47, 63], "includesElement__molar_heat_capacity": [24.89, 24.81], "includesElement__period": [4], "includesElement__pettifor_number": [54, 64], "includesElement__specific_heat_capacity": [0.489, 0.421], "includesElement__vdw_radius": [207.0, 200.0], "includesElement__vdw_radius_alvarez": [242.0, 240.0], "includesElement__vdw_radius_mm3": [229.0, 223.0], "includesElement__vdw_radius_uff": [314.4, 287.2], "includesElement__abundance_sea": [0.0025, 2e-05], "includesElement__atomic_weight_uncertainty": [0.0001, 4e-06], "includesElement__c6_gb": [955.0, 461.0], "includesElement__electronegativity_allen": [9.063, 10.86], "includesElement__en_allen": [9.063, 10.86], "includesElement__metallic_radius": [122.0, 116.0], "includesElement__metallic_radius_c12": [134.0, 125.0], "includesElement__thermal_conductivity": [30.7, 100.0], "includesElement__vdw_radius_batsanov": [205.0, 200.0], "includesElement__c6": [832.0, 408.0], "includesElement__gas_basicity": [836.8, 719.8], "includesElement__proton_affinity": [859.4, 742.7], "includesElement__covalent_radius_bragg": [137.0], "includesElement__is_monoisotopic": [true], "formula": ["Co2V6"], "spacegroup": ["223"], "thermalConductivity": [12.1667], "icsd": ["102716"], "band_gap": [0.0], "density": [7.129262], "density_atomic": [12.33059], "deprecated": [false], "efermi": [6.065148], "energy_above_hull": [0.0], "energy_per_atom": [-14.02134], "formation_energy_per_atom": [-0.1455993], "homogeneous_poisson": [0.277], "is_gap_direct": [false], "is_magnetic": [false], "is_metal": [true], "is_stable": [true], "nelements": [2], "nsites": [8], "num_magnetic_sites": [0], "num_unique_magnetic_sites": [0], "theoretical": [false], "total_magnetization": [1e-07], "total_magnetization_normalized_formula_units": [5e-08], "total_magnetization_normalized_vol": [1.013739e-09], "uncorrected_energy_per_atom": [-14.02134], "universal_anisotropy": [0.299], "volume": [98.64469], "equilibrium_reaction_energy_per_atom": [-0.07107675]}