{"includesElement": ["", "Sc", "Pt"], "includesElement___series_id": [8], "includesElement__abundance_crust": [22.0, 0.005], "includesElement__atomic_number": [21, 78], "includesElement__atomic_radius": [160.0, 135.0], "includesElement__atomic_radius_rahm": [263.0, 230.0], "includesElement__atomic_volume": [15.0, 9.1], "includesElement__atomic_weight": [44.95591, 195.084], "includesElement__covalent_radius_cordero": [170.0, 136.0], "includesElement__covalent_radius_pyykko": [148.0, 123.0], "includesElement__covalent_radius_pyykko_double": [116.0, 112.0], "includesElement__covalent_radius_pyykko_triple": [114.0, 110.0], "includesElement__density": [2.99, 21.5], "includesElement__dipole_polarizability": [97.0, 48.0], "includesElement__dipole_polarizability_unc": [10.0, 4.0], "includesElement__discovery_year": [1879, 1735], "includesElement__electron_affinity": [0.188, 2.128], "includesElement__electronegativity_allred-rochow": [0.0001369613, 0.0002346487], "includesElement__electronegativity_cottrell-sutton": [0.1423737, 0.1698876], "includesElement__electronegativity_ghosh": [0.1193833, 0.25691], "includesElement__electronegativity_gordy": [0.02027027, 0.02886179], "includesElement__electronegativity_mulliken": [3.374745, 5.543415], "includesElement__electronegativity_nagle": [0.3138941, 0.5928156], "includesElement__electronegativity_pauling": [1.36, 2.2], "includesElement__electronegativity_sanderson": [0.3038674, 1.45101], "includesElement__en_ghosh": [0.1193833, 0.25691], "includesElement__en_pauling": [1.36, 2.2], "includesElement__evaporation_heat": [332.7, 470.0], "includesElement__fusion_heat": [15.8, 21.76], "includesElement__glawe_number": [48, 64], "includesElement__group_id": [3, 10], "includesElement__heat_of_formation": [377.8, 565.7], "includesElement__is_radioactive": [false], "includesElement__lattice_constant": [3.31, 3.92], "includesElement__mendeleev_number": [11, 69], "includesElement__molar_heat_capacity": [25.52, 25.86], "includesElement__period": [4, 6], "includesElement__pettifor_number": [20, 68], "includesElement__specific_heat_capacity": [0.568, 0.133], "includesElement__vdw_radius": [215.0, 213.0], "includesElement__vdw_radius_alvarez": [258.0, 229.0], "includesElement__vdw_radius_mm3": [261.0, 239.0], "includesElement__vdw_radius_uff": [329.5, 275.4], "includesElement__abundance_sea": [6e-07], "includesElement__atomic_weight_uncertainty": [5e-06, 0.009], "includesElement__c6_gb": [1570.0, 470.0], "includesElement__electronegativity_allen": [7.042, 10.16], "includesElement__en_allen": [7.042, 10.16], "includesElement__metallic_radius": [144.0, 130.0], "includesElement__metallic_radius_c12": [162.0, 139.0], "includesElement__thermal_conductivity": [15.8, 71.6], "includesElement__vdw_radius_batsanov": [230.0, 205.0], "includesElement__c6": [1383.0], "includesElement__is_monoisotopic": [true], "includesElement__gas_basicity": [892.0], "includesElement__proton_affinity": [914.0], "formula": ["Pt1Sc1"], "spacegroup": ["221"], "thermalConductivity": [6.36826], "icsd": ["105784"], "band_gap": [0.0], "density": [11.19875], "density_atomic": [17.79644], "deprecated": [false], "efermi": [5.549191], "energy_above_hull": [0.0], "energy_per_atom": [-7.429184], "formation_energy_per_atom": [-1.227383], "homogeneous_poisson": [0.373], "is_gap_direct": [false], "is_magnetic": [false], "is_metal": [true], "is_stable": [true], "nelements": [2], "nsites": [2], "num_magnetic_sites": [0], "num_unique_magnetic_sites": [0], "theoretical": [false], "total_magnetization": [3e-07], "total_magnetization_normalized_formula_units": [3e-07], "total_magnetization_normalized_vol": [8.428653e-09], "uncorrected_energy_per_atom": [-32.75095], "universal_anisotropy": [0.781], "volume": [35.59288], "equilibrium_reaction_energy_per_atom": [-0.2254371]}