{"includesElement": ["", "Tl", "Ce"], "includesElement___series_id": [7, 9], "includesElement__abundance_crust": [0.85, 66.5], "includesElement__atomic_number": [81, 58], "includesElement__atomic_radius": [190.0, 185.0], "includesElement__atomic_radius_rahm": [242.0, 282.0], "includesElement__atomic_volume": [17.2, 21.0], "includesElement__atomic_weight": [204.38, 140.116], "includesElement__covalent_radius_cordero": [145.0, 204.0], "includesElement__covalent_radius_pyykko": [144.0, 163.0], "includesElement__covalent_radius_pyykko_double": [142.0, 137.0], "includesElement__covalent_radius_pyykko_triple": [150.0, 131.0], "includesElement__density": [11.8, 6.77], "includesElement__dipole_polarizability": [50.0, 205.0], "includesElement__dipole_polarizability_unc": [2.0, 20.0], "includesElement__discovery_year": [1861, 1803], "includesElement__electron_affinity": [0.377, 0.65], "includesElement__electronegativity_allred-rochow": [0.0002411265, 0.0001129135], "includesElement__electronegativity_cottrell-sutton": [0.186339, 0.1356647], "includesElement__electronegativity_ghosh": [0.173447, 0.16761], "includesElement__electronegativity_gordy": [0.03472222, 0.01840491], "includesElement__electronegativity_mulliken": [3.242643, 3.0943], "includesElement__electronegativity_nagle": [0.3914868, 0.2692167], "includesElement__electronegativity_pauling": [1.8, 1.12], "includesElement__electronegativity_sanderson": [0.9245096, 0.5356179], "includesElement__en_ghosh": [0.173447, 0.16761], "includesElement__en_pauling": [1.8, 1.12], "includesElement__evaporation_heat": [162.4, 398.0], "includesElement__fusion_heat": [4.31, 5.2], "includesElement__glawe_number": [81, 31], "includesElement__group_id": [13], "includesElement__heat_of_formation": [182.2, 420.1], "includesElement__is_radioactive": [false], "includesElement__lattice_constant": [3.46, 5.16], "includesElement__mendeleev_number": [85, 15], "includesElement__molar_heat_capacity": [26.32, 26.94], "includesElement__period": [6], "includesElement__pettifor_number": [78, 32], "includesElement__specific_heat_capacity": [0.129, 0.192], "includesElement__vdw_radius": [196.0, 242.0], "includesElement__vdw_radius_alvarez": [247.0, 288.0], "includesElement__vdw_radius_mm3": [259.0, 274.0], "includesElement__vdw_radius_uff": [434.7, 355.6], "includesElement__abundance_sea": [1.9e-05, 1.2e-06], "includesElement__c6_gb": [509.0, 3480.0], "includesElement__covalent_radius_bragg": [190.0], "includesElement__metallic_radius": [144.0], "includesElement__metallic_radius_c12": [160.0], "includesElement__thermal_conductivity": [46.1, 11.3], "includesElement__vdw_radius_batsanov": [220.0], "includesElement__vdw_radius_bondi": [196.0], "includesElement__atomic_weight_uncertainty": [0.001], "formula": ["Ce1Tl3"], "spacegroup": ["221"], "thermalConductivity": [1.17159], "icsd": ["102295"], "band_gap": [0.0], "density": [11.26712], "density_atomic": [27.75393], "deprecated": [false], "efermi": [7.270743], "energy_above_hull": [0.0], "energy_per_atom": [-47.92061], "formation_energy_per_atom": [-0.32597], "is_gap_direct": [false], "is_magnetic": [true], "is_metal": [true], "is_stable": [true], "nelements": [2], "nsites": [4], "num_magnetic_sites": [1], "num_unique_magnetic_sites": [1], "theoretical": [false], "total_magnetization": [1.275873], "total_magnetization_normalized_formula_units": [1.275873], "total_magnetization_normalized_vol": [0.01149273], "uncorrected_energy_per_atom": [-47.92061], "volume": [111.0157], "equilibrium_reaction_energy_per_atom": [-0.1096761]}