{"includesElement": ["", "Er", "B"], "includesElement___series_id": [9, 5], "includesElement__abundance_crust": [3.5, 10.0], "includesElement__atomic_number": [68, 5], "includesElement__atomic_radius": [175.0, 85.0], "includesElement__atomic_radius_rahm": [272.0, 205.0], "includesElement__atomic_volume": [18.4, 4.6], "includesElement__atomic_weight": [167.259, 10.81], "includesElement__covalent_radius_cordero": [189.0, 84.0], "includesElement__covalent_radius_pyykko": [165.0, 85.0], "includesElement__covalent_radius_pyykko_double": [133.0, 78.0], "includesElement__density": [9.07, 2.34], "includesElement__dipole_polarizability": [150.0, 20.5], "includesElement__dipole_polarizability_unc": [10.0, 0.1], "includesElement__discovery_year": [1843, 1808], "includesElement__electronegativity_allred-rochow": [0.0001046832, 0.0003598616], "includesElement__electronegativity_cottrell-sutton": [0.1314257, 0.1748949], "includesElement__electronegativity_ghosh": [0.212261, 0.184886], "includesElement__electronegativity_gordy": [0.01727273, 0.03058824], "includesElement__electronegativity_mulliken": [3.05385, 4.288871], "includesElement__electronegativity_nagle": [0.4536061, 0.5269739], "includesElement__electronegativity_pauling": [1.24, 2.04], "includesElement__electronegativity_sanderson": [0.5576573, 0.2546274], "includesElement__en_ghosh": [0.212261, 0.184886], "includesElement__en_pauling": [1.24, 2.04], "includesElement__evaporation_heat": [317.0, 504.5], "includesElement__glawe_number": [22, 86], "includesElement__heat_of_formation": [316.4, 565.0], "includesElement__is_radioactive": [false], "includesElement__lattice_constant": [3.56, 8.73], "includesElement__mendeleev_number": [35, 81], "includesElement__molar_heat_capacity": [28.12, 11.087], "includesElement__period": [6, 2], "includesElement__pettifor_number": [23, 86], "includesElement__specific_heat_capacity": [0.168, 1.026], "includesElement__vdw_radius": [229.0, 192.0], "includesElement__vdw_radius_alvarez": [283.0, 191.0], "includesElement__vdw_radius_mm3": [267.0, 215.0], "includesElement__vdw_radius_uff": [339.1, 408.3], "includesElement__abundance_sea": [8.7e-07, 4.44], "includesElement__atomic_weight_uncertainty": [0.003], "includesElement__c6_gb": [2150.0, 99.2], "includesElement__covalent_radius_pyykko_triple": [73.0], "includesElement__electron_affinity": [0.279723], "includesElement__fusion_heat": [23.6], "includesElement__group_id": [13], "includesElement__electronegativity_allen": [12.13], "includesElement__en_allen": [12.13], "includesElement__metallic_radius": [80.0], "includesElement__metallic_radius_c12": [98.0], "includesElement__thermal_conductivity": [27.4], "includesElement__vdw_radius_batsanov": [180.0], "includesElement__c6": [99.5], "includesElement__vdw_radius_dreiding": [402.0], "includesElement__vdw_radius_truhlar": [192.0], "formula": ["B6Er1"], "spacegroup": ["221"], "thermalConductivity": [10.3357], "icsd": ["150625"], "band_gap": [0.0], "density": [5.700378], "density_atomic": [9.659827], "deprecated": [false], "efermi": [6.906865], "energy_above_hull": [0.05357539], "energy_per_atom": [-11.56306], "formation_energy_per_atom": [-0.4196981], "homogeneous_poisson": [0.31], "is_gap_direct": [false], "is_magnetic": [false], "is_metal": [true], "is_stable": [false], "nelements": [2], "nsites": [7], "num_magnetic_sites": [0], "num_unique_magnetic_sites": [0], "theoretical": [false], "total_magnetization": [0.0], "total_magnetization_normalized_formula_units": [0.0], "total_magnetization_normalized_vol": [0.0], "uncorrected_energy_per_atom": [-11.56306], "universal_anisotropy": [6.74], "volume": [67.61879]}