{"includesElement": ["", "O", "Pa"], "includesElement___series_id": [1, 10], "includesElement__abundance_crust": [461000.0, 1.4e-06], "includesElement__atomic_number": [8, 91], "includesElement__atomic_radius": [60.0, 180.0], "includesElement__atomic_radius_rahm": [171.0, 285.0], "includesElement__atomic_volume": [14.0, 15.0], "includesElement__atomic_weight": [15.999, 231.0359], "includesElement__covalent_radius_cordero": [66.0, 200.0], "includesElement__covalent_radius_pyykko": [63.0, 169.0], "includesElement__covalent_radius_pyykko_double": [57.0, 138.0], "includesElement__covalent_radius_pyykko_triple": [53.0, 129.0], "includesElement__density": [0.001308, 15.4], "includesElement__dipole_polarizability": [5.3, 154.0], "includesElement__dipole_polarizability_unc": [0.2, 20.0], "includesElement__discovery_year": [1774, 1917], "includesElement__electron_affinity": [1.461113], "includesElement__electronegativity_allred-rochow": [0.001146384, 0.0001050383], "includesElement__electronegativity_cottrell-sutton": [0.2687419, 0.1332347], "includesElement__electronegativity_ghosh": [0.304575, 0.12149], "includesElement__electronegativity_gordy": [0.07222222, 0.01775148], "includesElement__electronegativity_mulliken": [7.539584, 2.945], "includesElement__electronegativity_nagle": [1.042218, 0.3190189], "includesElement__electronegativity_pauling": [3.44, 1.5], "includesElement__electronegativity_sanderson": [0.9416494, 0.6230657], "includesElement__en_ghosh": [0.304575, 0.12149], "includesElement__en_pauling": [3.44, 1.5], "includesElement__glawe_number": [97, 35], "includesElement__group_id": [16], "includesElement__heat_of_formation": [249.229, 563.0], "includesElement__is_radioactive": [false, true], "includesElement__lattice_constant": [6.83, 3.92], "includesElement__mendeleev_number": [99, 18], "includesElement__molar_heat_capacity": [29.378], "includesElement__period": [2, 7], "includesElement__pettifor_number": [101, 46], "includesElement__specific_heat_capacity": [0.918], "includesElement__vdw_radius": [152.0, 243.0], "includesElement__vdw_radius_alvarez": [150.0, 288.0], "includesElement__vdw_radius_mm3": [182.0, 264.0], "includesElement__vdw_radius_uff": [350.0, 342.4], "includesElement__abundance_sea": [857000.0, 5e-11], "includesElement__c6_gb": [16.7], "includesElement__covalent_radius_bragg": [65.0], "includesElement__electronegativity_allen": [21.36], "includesElement__en_allen": [21.36], "includesElement__thermal_conductivity": [0.027], "includesElement__vdw_radius_batsanov": [155.0], "includesElement__c6": [15.6], "includesElement__vdw_radius_dreiding": [340.46], "includesElement__gas_basicity": [459.6], "includesElement__proton_affinity": [485.2], "includesElement__vdw_radius_bondi": [152.0], "includesElement__vdw_radius_rt": [158.0], "includesElement__evaporation_heat": [481.2], "includesElement__fusion_heat": [16.7], "includesElement__atomic_weight_uncertainty": [2e-05], "includesElement__is_monoisotopic": [true], "formula": ["O2Pa1"], "spacegroup": ["225"], "thermalConductivity": [18.0073], "icsd": ["28915"], "band_gap": [0.0], "density": [10.88709], "density_atomic": [13.37301], "deprecated": [false], "efermi": [10.66056], "energy_above_hull": [0.0], "energy_per_atom": [-33.47563], "formation_energy_per_atom": [-3.883187], "homogeneous_poisson": [0.284], "is_gap_direct": [false], "is_magnetic": [false], "is_metal": [true], "is_stable": [true], "nelements": [2], "nsites": [3], "num_magnetic_sites": [0], "num_unique_magnetic_sites": [0], "theoretical": [false], "total_magnetization": [0.0020877], "total_magnetization_normalized_formula_units": [0.0020877], "total_magnetization_normalized_vol": [5.203766e-05], "uncorrected_energy_per_atom": [-33.47563], "universal_anisotropy": [0.245], "volume": [40.11902], "equilibrium_reaction_energy_per_atom": [-3.883187]}