{"includesElement": ["", "Ge", "Fe"], "includesElement___series_id": [5, 8], "includesElement__abundance_crust": [1.5, 56300.0], "includesElement__atomic_number": [32, 26], "includesElement__atomic_radius": [125.0, 140.0], "includesElement__atomic_radius_rahm": [234.0, 237.0], "includesElement__atomic_volume": [13.6, 7.1], "includesElement__atomic_weight": [72.63, 55.845], "includesElement__covalent_radius_cordero": [120.0, 142.0], "includesElement__covalent_radius_pyykko": [121.0, 116.0], "includesElement__covalent_radius_pyykko_double": [111.0, 109.0], "includesElement__covalent_radius_pyykko_triple": [114.0, 102.0], "includesElement__density": [5.3234, 7.87], "includesElement__dipole_polarizability": [40.0, 62.0], "includesElement__dipole_polarizability_unc": [1.0, 4.0], "includesElement__discovery_year": [1886], "includesElement__electron_affinity": [1.232712, 0.151], "includesElement__electronegativity_allred-rochow": [0.0003859026, 0.0002786861], "includesElement__electronegativity_cottrell-sutton": [0.2160884, 0.1797987], "includesElement__electronegativity_ghosh": [0.1895892, 0.1392532], "includesElement__electronegativity_gordy": [0.04669421, 0.03232759], "includesElement__electronegativity_mulliken": [4.566073, 4.026734], "includesElement__electronegativity_nagle": [0.4641589, 0.5053195], "includesElement__electronegativity_pauling": [2.01, 1.83], "includesElement__electronegativity_sanderson": [0.8001471, 0.748727], "includesElement__en_ghosh": [0.1895892, 0.1392532], "includesElement__en_pauling": [2.01, 1.83], "includesElement__evaporation_heat": [328.0, 340.0], "includesElement__fusion_heat": [36.8, 13.8], "includesElement__glawe_number": [84, 71], "includesElement__group_id": [14, 8], "includesElement__heat_of_formation": [372.0, 415.5], "includesElement__is_radioactive": [false], "includesElement__lattice_constant": [5.66, 2.87], "includesElement__mendeleev_number": [89, 59], "includesElement__molar_heat_capacity": [23.222, 25.1], "includesElement__period": [4], "includesElement__pettifor_number": [84, 61], "includesElement__specific_heat_capacity": [0.32, 0.449], "includesElement__vdw_radius": [211.0, 204.0], "includesElement__vdw_radius_alvarez": [229.0, 244.0], "includesElement__vdw_radius_mm3": [244.0, 223.0], "includesElement__vdw_radius_uff": [428.0, 291.2], "includesElement__abundance_sea": [5e-05, 0.002], "includesElement__atomic_weight_uncertainty": [0.008, 0.002], "includesElement__c6_gb": [365.0, 548.0], "includesElement__electronegativity_allen": [11.8, 10.64], "includesElement__en_allen": [11.8, 10.64], "includesElement__metallic_radius": [124.0, 117.0], "includesElement__metallic_radius_c12": [144.0, 126.0], "includesElement__thermal_conductivity": [60.2, 80.4], "includesElement__vdw_radius_batsanov": [210.0, 205.0], "includesElement__c6": [354.0, 482.0], "includesElement__vdw_radius_dreiding": [427.0], "includesElement__vdw_radius_truhlar": [211.0], "includesElement__covalent_radius_bragg": [140.0], "includesElement__gas_basicity": [731.1], "includesElement__proton_affinity": [754.0], "formula": ["Fe3Ge3"], "spacegroup": ["191"], "thermalConductivity": [3.23645], "icsd": ["632006"], "band_gap": [0.0], "density": [7.189596], "density_atomic": [14.83772], "deprecated": [false], "efermi": [6.475288], "energy_above_hull": [0.0], "energy_per_atom": [-6.66867], "formation_energy_per_atom": [-0.1221455], "homogeneous_poisson": [0.283], "is_gap_direct": [false], "is_magnetic": [true], "is_metal": [true], "is_stable": [true], "nelements": [2], "nsites": [6], "num_magnetic_sites": [3], "num_unique_magnetic_sites": [1], "theoretical": [false], "total_magnetization": [7.028127], "total_magnetization_normalized_formula_units": [2.342709], "total_magnetization_normalized_vol": [0.0789444], "uncorrected_energy_per_atom": [-14.13702], "universal_anisotropy": [0.223], "volume": [89.0263], "equilibrium_reaction_energy_per_atom": [-0.01768794]}