{"includesElement": ["", "Rh", "B"], "includesElement___series_id": [8, 5], "includesElement__abundance_crust": [0.001, 10.0], "includesElement__atomic_number": [45, 5], "includesElement__atomic_radius": [135.0, 85.0], "includesElement__atomic_radius_rahm": [233.0, 205.0], "includesElement__atomic_volume": [8.3, 4.6], "includesElement__atomic_weight": [102.9055, 10.81], "includesElement__covalent_radius_cordero": [142.0, 84.0], "includesElement__covalent_radius_pyykko": [125.0, 85.0], "includesElement__covalent_radius_pyykko_double": [110.0, 78.0], "includesElement__covalent_radius_pyykko_triple": [106.0, 73.0], "includesElement__density": [12.4, 2.34], "includesElement__dipole_polarizability": [66.0, 20.5], "includesElement__dipole_polarizability_unc": [10.0, 0.1], "includesElement__discovery_year": [1803, 1808], "includesElement__electron_affinity": [1.137, 0.279723], "includesElement__electronegativity_allred-rochow": [0.0002176, 0.0003598616], "includesElement__electronegativity_cottrell-sutton": [0.1649242, 0.1748949], "includesElement__electronegativity_ghosh": [0.1408379, 0.184886], "includesElement__electronegativity_gordy": [0.0272, 0.03058824], "includesElement__electronegativity_mulliken": [4.29795, 4.288871], "includesElement__electronegativity_nagle": [0.5147142, 0.5269739], "includesElement__electronegativity_pauling": [2.28, 2.04], "includesElement__electronegativity_sanderson": [0.9761915, 0.2546274], "includesElement__en_ghosh": [0.1408379, 0.184886], "includesElement__en_pauling": [2.28, 2.04], "includesElement__evaporation_heat": [494.0, 504.5], "includesElement__fusion_heat": [21.8, 23.6], "includesElement__glawe_number": [63, 86], "includesElement__group_id": [9, 13], "includesElement__heat_of_formation": [556.0, 565.0], "includesElement__is_radioactive": [false], "includesElement__lattice_constant": [3.8, 8.73], "includesElement__mendeleev_number": [64, 81], "includesElement__molar_heat_capacity": [24.98, 11.087], "includesElement__period": [5, 2], "includesElement__pettifor_number": [66, 86], "includesElement__specific_heat_capacity": [0.243, 1.026], "includesElement__vdw_radius": [210.0, 192.0], "includesElement__vdw_radius_alvarez": [244.0, 191.0], "includesElement__vdw_radius_mm3": [234.0, 215.0], "includesElement__vdw_radius_uff": [292.9, 408.3], "includesElement__atomic_weight_uncertainty": [2e-05], "includesElement__c6_gb": [708.0, 99.2], "includesElement__electronegativity_allen": [9.259, 12.13], "includesElement__en_allen": [9.259, 12.13], "includesElement__metallic_radius": [125.0, 80.0], "includesElement__metallic_radius_c12": [134.0, 98.0], "includesElement__thermal_conductivity": [150.0, 27.4], "includesElement__vdw_radius_batsanov": [200.0, 180.0], "includesElement__is_monoisotopic": [true], "includesElement__gas_basicity": [745.4], "includesElement__proton_affinity": [768.0], "includesElement__abundance_sea": [4.44], "includesElement__c6": [99.5], "includesElement__vdw_radius_dreiding": [402.0], "includesElement__vdw_radius_truhlar": [192.0], "formula": ["B2Rh2"], "spacegroup": ["194"], "thermalConductivity": [13.0392], "icsd": ["150732"], "band_gap": [0.0], "density": [9.336168], "density_atomic": [10.11286], "deprecated": [false], "efermi": [7.393084], "energy_above_hull": [0.0], "energy_per_atom": [-16.17035], "formation_energy_per_atom": [-0.4290551], "homogeneous_poisson": [0.329], "is_gap_direct": [false], "is_magnetic": [false], "is_metal": [true], "is_stable": [true], "nelements": [2], "nsites": [4], "num_magnetic_sites": [0], "num_unique_magnetic_sites": [0], "theoretical": [false], "total_magnetization": [1e-07], "total_magnetization_normalized_formula_units": [5e-08], "total_magnetization_normalized_vol": [2.4721e-09], "uncorrected_energy_per_atom": [-16.17035], "universal_anisotropy": [1.034], "volume": [40.45144], "equilibrium_reaction_energy_per_atom": [-0.06154095]}