{"includesElement": ["", "Mg", "N"], "includesElement___series_id": [4, 1], "includesElement__abundance_crust": [23300.0, 19.0], "includesElement__atomic_number": [12, 7], "includesElement__atomic_radius": [150.0, 65.0], "includesElement__atomic_radius_rahm": [240.0, 179.0], "includesElement__atomic_volume": [14.0, 17.3], "includesElement__atomic_weight": [24.305, 14.007], "includesElement__covalent_radius_cordero": [141.0, 71.0], "includesElement__covalent_radius_pyykko": [139.0, 71.0], "includesElement__covalent_radius_pyykko_double": [132.0, 60.0], "includesElement__covalent_radius_pyykko_triple": [127.0, 54.0], "includesElement__density": [1.74, 0.001145], "includesElement__dipole_polarizability": [71.2, 7.4], "includesElement__dipole_polarizability_unc": [0.4, 0.2], "includesElement__discovery_year": [1808, 1772], "includesElement__electronegativity_allred-rochow": [0.0001475079, 0.000773656], "includesElement__electronegativity_cottrell-sutton": [0.1431908, 0.2343706], "includesElement__electronegativity_ghosh": [0.121644, 0.26493], "includesElement__electronegativity_gordy": [0.0205036, 0.05492958], "includesElement__electronegativity_mulliken": [3.823117, 6.567065], "includesElement__electronegativity_nagle": [0.3039835, 0.8774979], "includesElement__electronegativity_pauling": [1.31, 3.04], "includesElement__electronegativity_sanderson": [0.1524211, 0.577482], "includesElement__en_ghosh": [0.121644, 0.26493], "includesElement__en_pauling": [1.31, 3.04], "includesElement__evaporation_heat": [131.8], "includesElement__fusion_heat": [9.2], "includesElement__glawe_number": [73, 88], "includesElement__group_id": [2, 15], "includesElement__heat_of_formation": [147.1, 472.44], "includesElement__is_radioactive": [false], "includesElement__lattice_constant": [3.21, 4.039], "includesElement__mendeleev_number": [76, 93], "includesElement__molar_heat_capacity": [24.869, 29.124], "includesElement__period": [3, 2], "includesElement__pettifor_number": [73, 100], "includesElement__specific_heat_capacity": [1.023, 1.04], "includesElement__vdw_radius": [173.0, 155.0], "includesElement__vdw_radius_alvarez": [251.0, 166.0], "includesElement__vdw_radius_mm3": [243.0, 193.0], "includesElement__vdw_radius_uff": [302.1, 366.0], "includesElement__abundance_sea": [1290.0, 0.5], "includesElement__c6_gb": [629.0, 25.7], "includesElement__covalent_radius_bragg": [142.0, 65.0], "includesElement__electronegativity_allen": [7.646, 18.13], "includesElement__en_allen": [7.646, 18.13], "includesElement__metallic_radius": [136.0], "includesElement__metallic_radius_c12": [160.0, 53.0], "includesElement__thermal_conductivity": [156.0, 0.026], "includesElement__vdw_radius_batsanov": [220.0, 160.0], "includesElement__c6": [626.0, 24.2], "includesElement__gas_basicity": [797.3, 318.7], "includesElement__proton_affinity": [819.6, 342.2], "includesElement__vdw_radius_bondi": [173.0, 155.0], "includesElement__electron_affinity": [-1.4], "includesElement__vdw_radius_dreiding": [366.21], "includesElement__vdw_radius_rt": [164.0], "formula": ["Mg24N16"], "spacegroup": ["206"], "thermalConductivity": [4.43222, 4.40645], "icsd": ["23522", "408145"], "band_gap": [1.51], "density": [2.73722], "density_atomic": [12.24568], "deprecated": [false], "efermi": [3.642048], "energy_above_hull": [0.0], "energy_per_atom": [-7.095322], "formation_energy_per_atom": [-0.9422394], "homogeneous_poisson": [0.214], "is_gap_direct": [false], "is_magnetic": [false], "is_metal": [false], "is_stable": [true], "nelements": [2], "nsites": [40], "num_magnetic_sites": [0], "num_unique_magnetic_sites": [0], "theoretical": [false], "total_magnetization": [0.0], "total_magnetization_normalized_formula_units": [0.0], "total_magnetization_normalized_vol": [0.0], "uncorrected_energy_per_atom": [-7.095322], "universal_anisotropy": [0.06], "volume": [489.827], "cbm": [5.0253], "equilibrium_reaction_energy_per_atom": [-0.9422394], "vbm": [3.5153]}