{"includesElement": ["", "N", "Pu"], "includesElement___series_id": [1, 10], "includesElement__abundance_crust": [19.0], "includesElement__atomic_number": [7, 94], "includesElement__atomic_radius": [65.0, 175.0], "includesElement__atomic_radius_rahm": [179.0, 278.0], "includesElement__atomic_volume": [17.3], "includesElement__atomic_weight": [14.007, 244.0], "includesElement__covalent_radius_cordero": [71.0, 187.0], "includesElement__covalent_radius_pyykko": [71.0, 172.0], "includesElement__covalent_radius_pyykko_double": [60.0, 135.0], "includesElement__covalent_radius_pyykko_triple": [54.0], "includesElement__density": [0.001145, 19.7], "includesElement__dipole_polarizability": [7.4, 132.0], "includesElement__dipole_polarizability_unc": [0.2, 20.0], "includesElement__discovery_year": [1772, 1940], "includesElement__electron_affinity": [-1.4], "includesElement__electronegativity_allred-rochow": [0.000773656, 9.633586e-05], "includesElement__electronegativity_cottrell-sutton": [0.2343706, 0.1287236], "includesElement__electronegativity_ghosh": [0.26493, 0.16137], "includesElement__electronegativity_gordy": [0.05492958, 0.01656977], "includesElement__electronegativity_mulliken": [6.567065, 3.0129], "includesElement__electronegativity_nagle": [0.8774979, 0.3928005], "includesElement__electronegativity_pauling": [3.04, 1.3], "includesElement__electronegativity_sanderson": [0.577482, 0.6084717], "includesElement__en_ghosh": [0.26493, 0.16137], "includesElement__en_pauling": [3.04, 1.3], "includesElement__glawe_number": [88, 38], "includesElement__group_id": [15], "includesElement__heat_of_formation": [472.44, 345.0], "includesElement__is_radioactive": [false, true], "includesElement__lattice_constant": [4.039], "includesElement__mendeleev_number": [93, 24], "includesElement__molar_heat_capacity": [29.124], "includesElement__period": [2, 7], "includesElement__pettifor_number": [100, 43], "includesElement__specific_heat_capacity": [1.04], "includesElement__vdw_radius": [155.0, 243.0], "includesElement__vdw_radius_alvarez": [166.0, 281.0], "includesElement__vdw_radius_mm3": [193.0, 252.0], "includesElement__vdw_radius_uff": [366.0, 342.4], "includesElement__abundance_sea": [0.5], "includesElement__c6_gb": [25.7], "includesElement__covalent_radius_bragg": [65.0], "includesElement__electronegativity_allen": [18.13], "includesElement__en_allen": [18.13], "includesElement__metallic_radius_c12": [53.0], "includesElement__thermal_conductivity": [0.026], "includesElement__vdw_radius_batsanov": [160.0], "includesElement__c6": [24.2], "includesElement__vdw_radius_dreiding": [366.21], "includesElement__gas_basicity": [318.7], "includesElement__proton_affinity": [342.2], "includesElement__vdw_radius_bondi": [155.0], "includesElement__vdw_radius_rt": [164.0], "includesElement__evaporation_heat": [343.5], "includesElement__fusion_heat": [2.8], "formula": ["N1Pu1"], "spacegroup": ["225"], "thermalConductivity": [36.6746], "icsd": ["31718"], "band_gap": [0.0], "density": [14.14252], "density_atomic": [15.14689], "deprecated": [false], "efermi": [11.80221], "energy_above_hull": [0.0], "energy_per_atom": [-49.4174], "formation_energy_per_atom": [-1.674851], "homogeneous_poisson": [0.309], "is_gap_direct": [false], "is_magnetic": [true], "is_metal": [true], "is_stable": [true], "nelements": [2], "nsites": [2], "num_magnetic_sites": [2], "num_unique_magnetic_sites": [2], "theoretical": [false], "total_magnetization": [4.87084], "total_magnetization_normalized_formula_units": [4.87084], "total_magnetization_normalized_vol": [0.1607868], "uncorrected_energy_per_atom": [-49.4174], "universal_anisotropy": [0.604], "volume": [30.29377], "equilibrium_reaction_energy_per_atom": [-1.674851]}