{"includesElement": ["", "Si", "Pt"], "includesElement___series_id": [5, 8], "includesElement__abundance_crust": [282000.0, 0.005], "includesElement__atomic_number": [14, 78], "includesElement__atomic_radius": [110.0, 135.0], "includesElement__atomic_radius_rahm": [232.0, 230.0], "includesElement__atomic_volume": [12.1, 9.1], "includesElement__atomic_weight": [28.085, 195.084], "includesElement__covalent_radius_cordero": [111.0, 136.0], "includesElement__covalent_radius_pyykko": [116.0, 123.0], "includesElement__covalent_radius_pyykko_double": [107.0, 112.0], "includesElement__covalent_radius_pyykko_triple": [102.0, 110.0], "includesElement__density": [2.3296, 21.5], "includesElement__dipole_polarizability": [37.3, 48.0], "includesElement__dipole_polarizability_unc": [0.7, 4.0], "includesElement__discovery_year": [1824, 1735], "includesElement__electron_affinity": [1.389521, 2.128], "includesElement__electronegativity_allred-rochow": [0.0003084126, 0.0002346487], "includesElement__electronegativity_cottrell-sutton": [0.1891451, 0.1698876], "includesElement__electronegativity_ghosh": [0.178503, 0.25691], "includesElement__electronegativity_gordy": [0.03577586, 0.02886179], "includesElement__electronegativity_mulliken": [4.770602, 5.543415], "includesElement__electronegativity_nagle": [0.4750986, 0.5928156], "includesElement__electronegativity_pauling": [1.9, 2.2], "includesElement__electronegativity_sanderson": [0.3468158, 1.45101], "includesElement__en_ghosh": [0.178503, 0.25691], "includesElement__en_pauling": [1.9, 2.2], "includesElement__evaporation_heat": [383.0, 470.0], "includesElement__fusion_heat": [50.6, 21.76], "includesElement__glawe_number": [85, 64], "includesElement__group_id": [14, 10], "includesElement__heat_of_formation": [450.0, 565.7], "includesElement__is_radioactive": [false], "includesElement__lattice_constant": [5.43, 3.92], "includesElement__mendeleev_number": [88, 69], "includesElement__molar_heat_capacity": [19.99, 25.86], "includesElement__period": [3, 6], "includesElement__pettifor_number": [85, 68], "includesElement__specific_heat_capacity": [0.712, 0.133], "includesElement__vdw_radius": [210.0, 213.0], "includesElement__vdw_radius_alvarez": [219.0, 229.0], "includesElement__vdw_radius_mm3": [229.0, 239.0], "includesElement__vdw_radius_uff": [429.5, 275.4], "includesElement__abundance_sea": [2.2], "includesElement__c6_gb": [308.0, 470.0], "includesElement__covalent_radius_bragg": [117.0], "includesElement__electronegativity_allen": [11.33, 10.16], "includesElement__en_allen": [11.33, 10.16], "includesElement__metallic_radius": [117.0, 130.0], "includesElement__metallic_radius_c12": [138.0, 139.0], "includesElement__thermal_conductivity": [149.0, 71.6], "includesElement__vdw_radius_batsanov": [210.0, 205.0], "includesElement__c6": [305.0], "includesElement__vdw_radius_dreiding": [427.0], "includesElement__gas_basicity": [814.1], "includesElement__proton_affinity": [837.0], "includesElement__vdw_radius_bondi": [210.0], "includesElement__atomic_weight_uncertainty": [0.009], "formula": ["Pt2Si1"], "spacegroup": ["139"], "thermalConductivity": [6.15442], "icsd": ["649616"], "band_gap": [0.0], "density": [14.95412], "density_atomic": [15.48127], "deprecated": [false], "efermi": [7.764209], "energy_above_hull": [0.0], "energy_per_atom": [-38.02895], "formation_energy_per_atom": [-0.7792133], "homogeneous_poisson": [0.356], "is_gap_direct": [false], "is_magnetic": [false], "is_metal": [true], "is_stable": [true], "nelements": [2], "nsites": [3], "num_magnetic_sites": [0], "num_unique_magnetic_sites": [0], "theoretical": [false], "total_magnetization": [7e-07], "total_magnetization_normalized_formula_units": [7e-07], "total_magnetization_normalized_vol": [1.507198e-08], "uncorrected_energy_per_atom": [-38.02895], "universal_anisotropy": [1.414], "volume": [46.4438], "equilibrium_reaction_energy_per_atom": [-0.2506004]}