{"includesElement": ["", "Ge"], "includesElement___series_id": [5], "includesElement__abundance_crust": [1.5], "includesElement__atomic_number": [32], "includesElement__atomic_radius": [125.0], "includesElement__atomic_radius_rahm": [234.0], "includesElement__atomic_volume": [13.6], "includesElement__atomic_weight": [72.63], "includesElement__covalent_radius_cordero": [120.0], "includesElement__covalent_radius_pyykko": [121.0], "includesElement__covalent_radius_pyykko_double": [111.0], "includesElement__covalent_radius_pyykko_triple": [114.0], "includesElement__density": [5.3234], "includesElement__dipole_polarizability": [40.0], "includesElement__dipole_polarizability_unc": [1.0], "includesElement__discovery_year": [1886], "includesElement__electron_affinity": [1.232712], "includesElement__electronegativity_allred-rochow": [0.0003859026], "includesElement__electronegativity_cottrell-sutton": [0.2160884], "includesElement__electronegativity_ghosh": [0.1895892], "includesElement__electronegativity_gordy": [0.04669421], "includesElement__electronegativity_mulliken": [4.566073], "includesElement__electronegativity_nagle": [0.4641589], "includesElement__electronegativity_pauling": [2.01], "includesElement__electronegativity_sanderson": [0.8001471], "includesElement__en_ghosh": [0.1895892], "includesElement__en_pauling": [2.01], "includesElement__evaporation_heat": [328.0], "includesElement__fusion_heat": [36.8], "includesElement__glawe_number": [84], "includesElement__group_id": [14], "includesElement__heat_of_formation": [372.0], "includesElement__is_radioactive": [false], "includesElement__lattice_constant": [5.66], "includesElement__mendeleev_number": [89], "includesElement__molar_heat_capacity": [23.222], "includesElement__period": [4], "includesElement__pettifor_number": [84], "includesElement__specific_heat_capacity": [0.32], "includesElement__vdw_radius": [211.0], "includesElement__vdw_radius_alvarez": [229.0], "includesElement__vdw_radius_mm3": [244.0], "includesElement__vdw_radius_uff": [428.0], "includesElement__abundance_sea": [5e-05], "includesElement__atomic_weight_uncertainty": [0.008], "includesElement__c6_gb": [365.0], "includesElement__electronegativity_allen": [11.8], "includesElement__en_allen": [11.8], "includesElement__metallic_radius": [124.0], "includesElement__metallic_radius_c12": [144.0], "includesElement__thermal_conductivity": [60.2], "includesElement__vdw_radius_batsanov": [210.0], "includesElement__c6": [354.0], "includesElement__vdw_radius_dreiding": [427.0], "includesElement__vdw_radius_truhlar": [211.0], "formula": ["Ge2"], "spacegroup": ["227"], "thermalConductivity": [8.77592], "icsd": ["181071"], "band_gap": [0.0], "density": [5.280205], "density_atomic": [22.8441], "deprecated": [false], "efermi": [4.532439], "energy_above_hull": [0.0], "energy_per_atom": [-13.87198], "formation_energy_per_atom": [0.0], "has_reconstructed": [true], "homogeneous_poisson": [0.191], "is_gap_direct": [false], "is_magnetic": [false], "is_metal": [true], "is_stable": [true], "nelements": [1], "nsites": [2], "num_magnetic_sites": [0], "num_unique_magnetic_sites": [0], "shape_factor": [4.95084], "surface_anisotropy": [0.02683765], "theoretical": [false], "total_magnetization": [0.0], "total_magnetization_normalized_formula_units": [0.0], "total_magnetization_normalized_vol": [0.0], "uncorrected_energy_per_atom": [-13.87198], "universal_anisotropy": [0.333], "volume": [45.68821], "weighted_surface_energy": [0.9053886], "weighted_surface_energy_EV_PER_ANG2": [0.05650992], "weighted_work_function": [4.393023], "e_electronic": [25.85353], "e_ionic": [0.0], "e_total": [25.85353], "equilibrium_reaction_energy_per_atom": [0.0], "n": [5.084636]}