{"includesElement": ["", "B", "Pu"], "includesElement___series_id": [5, 10], "includesElement__abundance_crust": [10.0], "includesElement__atomic_number": [5, 94], "includesElement__atomic_radius": [85.0, 175.0], "includesElement__atomic_radius_rahm": [205.0, 278.0], "includesElement__atomic_volume": [4.6], "includesElement__atomic_weight": [10.81, 244.0], "includesElement__covalent_radius_cordero": [84.0, 187.0], "includesElement__covalent_radius_pyykko": [85.0, 172.0], "includesElement__covalent_radius_pyykko_double": [78.0, 135.0], "includesElement__covalent_radius_pyykko_triple": [73.0], "includesElement__density": [2.34, 19.7], "includesElement__dipole_polarizability": [20.5, 132.0], "includesElement__dipole_polarizability_unc": [0.1, 20.0], "includesElement__discovery_year": [1808, 1940], "includesElement__electron_affinity": [0.279723], "includesElement__electronegativity_allred-rochow": [0.0003598616, 9.633586e-05], "includesElement__electronegativity_cottrell-sutton": [0.1748949, 0.1287236], "includesElement__electronegativity_ghosh": [0.184886, 0.16137], "includesElement__electronegativity_gordy": [0.03058824, 0.01656977], "includesElement__electronegativity_mulliken": [4.288871, 3.0129], "includesElement__electronegativity_nagle": [0.5269739, 0.3928005], "includesElement__electronegativity_pauling": [2.04, 1.3], "includesElement__electronegativity_sanderson": [0.2546274, 0.6084717], "includesElement__en_ghosh": [0.184886, 0.16137], "includesElement__en_pauling": [2.04, 1.3], "includesElement__evaporation_heat": [504.5, 343.5], "includesElement__fusion_heat": [23.6, 2.8], "includesElement__glawe_number": [86, 38], "includesElement__group_id": [13], "includesElement__heat_of_formation": [565.0, 345.0], "includesElement__is_radioactive": [false, true], "includesElement__lattice_constant": [8.73], "includesElement__mendeleev_number": [81, 24], "includesElement__molar_heat_capacity": [11.087], "includesElement__period": [2, 7], "includesElement__pettifor_number": [86, 43], "includesElement__specific_heat_capacity": [1.026], "includesElement__vdw_radius": [192.0, 243.0], "includesElement__vdw_radius_alvarez": [191.0, 281.0], "includesElement__vdw_radius_mm3": [215.0, 252.0], "includesElement__vdw_radius_uff": [408.3, 342.4], "includesElement__abundance_sea": [4.44], "includesElement__c6_gb": [99.2], "includesElement__electronegativity_allen": [12.13], "includesElement__en_allen": [12.13], "includesElement__metallic_radius": [80.0], "includesElement__metallic_radius_c12": [98.0], "includesElement__thermal_conductivity": [27.4], "includesElement__vdw_radius_batsanov": [180.0], "includesElement__c6": [99.5], "includesElement__vdw_radius_dreiding": [402.0], "includesElement__vdw_radius_truhlar": [192.0], "formula": ["B6Pu1"], "spacegroup": ["221"], "thermalConductivity": [20.6604], "icsd": ["43658"], "band_gap": [0.0], "density": [7.377803], "density_atomic": [9.931026], "deprecated": [false], "efermi": [9.14793], "energy_above_hull": [0.004874788], "energy_per_atom": [-19.08396], "formation_energy_per_atom": [-0.4504656], "is_gap_direct": [false], "is_magnetic": [true], "is_metal": [true], "is_stable": [false], "nelements": [2], "nsites": [7], "num_magnetic_sites": [1], "num_unique_magnetic_sites": [1], "theoretical": [false], "total_magnetization": [5.466299], "total_magnetization_normalized_formula_units": [5.466299], "total_magnetization_normalized_vol": [0.07863234], "uncorrected_energy_per_atom": [-8.150412], "volume": [69.51718]}