{"includesElement": ["", "N", "Th"], "includesElement___series_id": [1, 10], "includesElement__abundance_crust": [19.0, 9.6], "includesElement__atomic_number": [7, 90], "includesElement__atomic_radius": [65.0, 180.0], "includesElement__atomic_radius_rahm": [179.0, 288.0], "includesElement__atomic_volume": [17.3, 19.8], "includesElement__atomic_weight": [14.007, 232.0377], "includesElement__covalent_radius_cordero": [71.0, 206.0], "includesElement__covalent_radius_pyykko": [71.0, 175.0], "includesElement__covalent_radius_pyykko_double": [60.0, 143.0], "includesElement__covalent_radius_pyykko_triple": [54.0, 136.0], "includesElement__density": [0.001145, 11.7], "includesElement__dipole_polarizability": [7.4, 217.0], "includesElement__dipole_polarizability_unc": [0.2, 54.0], "includesElement__discovery_year": [1772, 1828], "includesElement__electron_affinity": [-1.4], "includesElement__electronegativity_allred-rochow": [0.000773656, 0.0001028571], "includesElement__electronegativity_cottrell-sutton": [0.2343706, 0.1341641], "includesElement__electronegativity_ghosh": [0.26493, 0.10277], "includesElement__electronegativity_gordy": [0.05492958, 0.018], "includesElement__electronegativity_mulliken": [6.567065, 3.15335], "includesElement__electronegativity_nagle": [0.8774979, 0.2641598], "includesElement__electronegativity_pauling": [3.04, 1.3], "includesElement__electronegativity_sanderson": [0.577482, 0.5557019], "includesElement__en_ghosh": [0.26493, 0.10277], "includesElement__en_pauling": [3.04, 1.3], "includesElement__glawe_number": [88, 34], "includesElement__group_id": [15], "includesElement__heat_of_formation": [472.44, 602.0], "includesElement__is_radioactive": [false, true], "includesElement__lattice_constant": [4.039, 5.08], "includesElement__mendeleev_number": [93, 16], "includesElement__molar_heat_capacity": [29.124, 27.32], "includesElement__period": [2, 7], "includesElement__pettifor_number": [100, 47], "includesElement__specific_heat_capacity": [1.04, 0.118], "includesElement__vdw_radius": [155.0, 245.0], "includesElement__vdw_radius_alvarez": [166.0, 293.0], "includesElement__vdw_radius_mm3": [193.0, 274.0], "includesElement__vdw_radius_uff": [366.0, 339.6], "includesElement__abundance_sea": [0.5, 1e-06], "includesElement__c6_gb": [25.7], "includesElement__covalent_radius_bragg": [65.0], "includesElement__electronegativity_allen": [18.13], "includesElement__en_allen": [18.13], "includesElement__metallic_radius_c12": [53.0], "includesElement__thermal_conductivity": [0.026], "includesElement__vdw_radius_batsanov": [160.0, 240.0], "includesElement__c6": [24.2], "includesElement__vdw_radius_dreiding": [366.21], "includesElement__gas_basicity": [318.7], "includesElement__proton_affinity": [342.2], "includesElement__vdw_radius_bondi": [155.0], "includesElement__vdw_radius_rt": [164.0], "includesElement__evaporation_heat": [513.7], "includesElement__fusion_heat": [16.11], "includesElement__atomic_weight_uncertainty": [0.0004], "formula": ["N1Th1"], "spacegroup": ["225"], "thermalConductivity": [18.9114], "icsd": ["44388"], "band_gap": [0.0], "density": [11.82853], "density_atomic": [17.2704], "deprecated": [false], "efermi": [8.82679], "energy_above_hull": [0.0], "energy_per_atom": [-43.07333], "formation_energy_per_atom": [-1.771323], "homogeneous_poisson": [0.289], "is_gap_direct": [false], "is_magnetic": [false], "is_metal": [true], "is_stable": [true], "nelements": [2], "nsites": [2], "num_magnetic_sites": [0], "num_unique_magnetic_sites": [0], "theoretical": [false], "total_magnetization": [2e-06], "total_magnetization_normalized_formula_units": [2e-06], "total_magnetization_normalized_vol": [5.790254e-08], "uncorrected_energy_per_atom": [-43.07333], "universal_anisotropy": [0.175], "volume": [34.5408], "equilibrium_reaction_energy_per_atom": [-0.1223903]}