{"includesElement": ["", "Mg", "H"], "includesElement___series_id": [4, 1], "includesElement__abundance_crust": [23300.0, 1400.0], "includesElement__atomic_number": [12, 1], "includesElement__atomic_radius": [150.0, 25.0], "includesElement__atomic_radius_rahm": [240.0, 154.0], "includesElement__atomic_volume": [14.0, 14.1], "includesElement__atomic_weight": [24.305, 1.008], "includesElement__covalent_radius_cordero": [141.0, 31.0], "includesElement__covalent_radius_pyykko": [139.0, 32.0], "includesElement__covalent_radius_pyykko_double": [132.0], "includesElement__covalent_radius_pyykko_triple": [127.0], "includesElement__density": [1.74, 8.2e-05], "includesElement__dipole_polarizability": [71.2, 4.50711], "includesElement__dipole_polarizability_unc": [0.4, 3e-05], "includesElement__discovery_year": [1808, 1766], "includesElement__electronegativity_allred-rochow": [0.0001475079, 0.0009765625], "includesElement__electronegativity_cottrell-sutton": [0.1431908, 0.1767767], "includesElement__electronegativity_ghosh": [0.121644, 0.2638], "includesElement__electronegativity_gordy": [0.0205036, 0.03125], "includesElement__electronegativity_mulliken": [3.823117, 7.176315], "includesElement__electronegativity_nagle": [0.3039835, 0.6053882], "includesElement__electronegativity_pauling": [1.31, 2.2], "includesElement__electronegativity_sanderson": [0.1524211, 2.187771], "includesElement__en_ghosh": [0.121644, 0.2638], "includesElement__en_pauling": [1.31, 2.2], "includesElement__evaporation_heat": [131.8, 0.904], "includesElement__fusion_heat": [9.2, 0.117], "includesElement__glawe_number": [73, 103], "includesElement__group_id": [2, 1], "includesElement__heat_of_formation": [147.1, 217.998], "includesElement__is_radioactive": [false], "includesElement__lattice_constant": [3.21, 3.75], "includesElement__mendeleev_number": [76, 105], "includesElement__molar_heat_capacity": [24.869, 28.836], "includesElement__period": [3, 1], "includesElement__pettifor_number": [73, 103], "includesElement__specific_heat_capacity": [1.023, 14.304], "includesElement__vdw_radius": [173.0, 110.0], "includesElement__vdw_radius_alvarez": [251.0, 120.0], "includesElement__vdw_radius_mm3": [243.0, 162.0], "includesElement__vdw_radius_uff": [302.1, 288.6], "includesElement__abundance_sea": [1290.0, 108000.0], "includesElement__c6_gb": [629.0, 6.51], "includesElement__covalent_radius_bragg": [142.0], "includesElement__electronegativity_allen": [7.646, 13.61], "includesElement__en_allen": [7.646, 13.61], "includesElement__metallic_radius": [136.0], "includesElement__metallic_radius_c12": [160.0, 78.0], "includesElement__thermal_conductivity": [156.0, 0.1815], "includesElement__vdw_radius_batsanov": [220.0], "includesElement__c6": [626.0, 6.499027], "includesElement__gas_basicity": [797.3], "includesElement__proton_affinity": [819.6], "includesElement__vdw_radius_bondi": [173.0, 120.0], "includesElement__electron_affinity": [0.754195], "includesElement__vdw_radius_dreiding": [319.5], "includesElement__vdw_radius_rt": [110.0], "formula": ["H4Mg2"], "spacegroup": ["136"], "thermalConductivity": [7.54015], "icsd": ["155807"], "band_gap": [3.7097], "density": [1.457556], "density_atomic": [9.995467], "deprecated": [false], "efermi": [0.1054971], "energy_above_hull": [0.0], "energy_per_atom": [-3.089653], "formation_energy_per_atom": [-0.2827191], "homogeneous_poisson": [0.206], "is_gap_direct": [false], "is_magnetic": [false], "is_metal": [false], "is_stable": [true], "nelements": [2], "nsites": [6], "num_magnetic_sites": [0], "num_unique_magnetic_sites": [0], "theoretical": [false], "total_magnetization": [0.0], "total_magnetization_normalized_formula_units": [0.0], "total_magnetization_normalized_vol": [0.0], "uncorrected_energy_per_atom": [-3.956299], "universal_anisotropy": [0.648], "volume": [59.9728], "cbm": [3.7197], "e_electronic": [3.950609], "e_ionic": [6.3855], "e_total": [10.33611], "equilibrium_reaction_energy_per_atom": [-0.2827191], "n": [1.987614], "vbm": [0.01]}