{"includesElement": ["", "Cu", "Pd"], "includesElement___series_id": [8], "includesElement__abundance_crust": [60.0, 0.015], "includesElement__atomic_number": [29, 46], "includesElement__atomic_radius": [135.0, 140.0], "includesElement__atomic_radius_rahm": [217.0, 215.0], "includesElement__atomic_volume": [7.1, 8.9], "includesElement__atomic_weight": [63.546, 106.42], "includesElement__covalent_radius_cordero": [132.0, 139.0], "includesElement__covalent_radius_pyykko": [112.0, 120.0], "includesElement__covalent_radius_pyykko_double": [115.0, 117.0], "includesElement__covalent_radius_pyykko_triple": [120.0, 112.0], "includesElement__density": [8.96, 12.0], "includesElement__dipole_polarizability": [46.5, 26.14], "includesElement__dipole_polarizability_unc": [0.5, 0.1], "includesElement__electron_affinity": [1.235, 0.562], "includesElement__electronegativity_allred-rochow": [0.0002949617, 0.0004756944], "includesElement__electronegativity_cottrell-sutton": [0.1817573, 0.2389212], "includesElement__electronegativity_ghosh": [0.1511716, 0.1440276], "includesElement__electronegativity_gordy": [0.03303571, 0.05708333], "includesElement__electronegativity_mulliken": [4.48069, 4.44943], "includesElement__electronegativity_nagle": [0.6184623, 0.7259357], "includesElement__electronegativity_pauling": [1.9, 2.2], "includesElement__electronegativity_sanderson": [0.9175542, 1.124263], "includesElement__en_ghosh": [0.1511716, 0.1440276], "includesElement__en_pauling": [1.9, 2.2], "includesElement__evaporation_heat": [304.6, 372.4], "includesElement__fusion_heat": [13.01, 17.24], "includesElement__glawe_number": [68, 65], "includesElement__group_id": [11, 10], "includesElement__heat_of_formation": [337.4, 376.6], "includesElement__is_radioactive": [false], "includesElement__lattice_constant": [3.61, 3.89], "includesElement__mendeleev_number": [71, 68], "includesElement__molar_heat_capacity": [24.44, 25.98], "includesElement__period": [4, 5], "includesElement__pettifor_number": [72, 69], "includesElement__specific_heat_capacity": [0.385, 0.246], "includesElement__vdw_radius": [196.0, 210.0], "includesElement__vdw_radius_alvarez": [238.0, 215.0], "includesElement__vdw_radius_mm3": [226.0, 237.0], "includesElement__vdw_radius_uff": [349.5, 289.9], "includesElement__abundance_sea": [0.00025], "includesElement__atomic_weight_uncertainty": [0.003, 0.01], "includesElement__c6_gb": [264.0, 628.0], "includesElement__covalent_radius_bragg": [137.0], "includesElement__electronegativity_allen": [10.96, 9.402], "includesElement__en_allen": [10.96, 9.402], "includesElement__metallic_radius": [118.0, 128.0], "includesElement__metallic_radius_c12": [128.0, 137.0], "includesElement__thermal_conductivity": [401.0, 71.8], "includesElement__vdw_radius_batsanov": [200.0, 205.0], "includesElement__c6": [253.0], "includesElement__gas_basicity": [632.4, 673.4], "includesElement__proton_affinity": [655.3, 696.0], "includesElement__discovery_year": [1803], "formula": ["Cu1Pd1"], "spacegroup": ["221"], "thermalConductivity": [3.88647], "icsd": ["181913"], "band_gap": [0.0], "density": [10.66056], "density_atomic": [13.23735], "deprecated": [false], "efermi": [5.07143], "energy_above_hull": [0.0], "energy_per_atom": [-17.02698], "formation_energy_per_atom": [-0.1233518], "homogeneous_poisson": [0.36], "is_gap_direct": [false], "is_magnetic": [false], "is_metal": [true], "is_stable": [true], "nelements": [2], "nsites": [2], "num_magnetic_sites": [0], "num_unique_magnetic_sites": [0], "theoretical": [false], "total_magnetization": [1e-07], "total_magnetization_normalized_formula_units": [1e-07], "total_magnetization_normalized_vol": [3.77719e-09], "uncorrected_energy_per_atom": [-17.02698], "universal_anisotropy": [5.164], "volume": [26.47471], "equilibrium_reaction_energy_per_atom": [-0.0569952]}