{"includesElement": ["", "Rh", "Hf"], "includesElement___series_id": [8], "includesElement__abundance_crust": [0.001, 3.0], "includesElement__atomic_number": [45, 72], "includesElement__atomic_radius": [135.0, 155.0], "includesElement__atomic_radius_rahm": [233.0, 264.0], "includesElement__atomic_volume": [8.3, 13.6], "includesElement__atomic_weight": [102.9055, 178.49], "includesElement__covalent_radius_cordero": [142.0, 175.0], "includesElement__covalent_radius_pyykko": [125.0, 152.0], "includesElement__covalent_radius_pyykko_double": [110.0, 128.0], "includesElement__covalent_radius_pyykko_triple": [106.0, 122.0], "includesElement__density": [12.4, 13.3], "includesElement__dipole_polarizability": [66.0, 103.0], "includesElement__dipole_polarizability_unc": [10.0, 6.0], "includesElement__discovery_year": [1803, 1923], "includesElement__electron_affinity": [1.137, 0.014], "includesElement__electronegativity_allred-rochow": [0.0002176, 0.00013634], "includesElement__electronegativity_cottrell-sutton": [0.1649242, 0.1439572], "includesElement__electronegativity_ghosh": [0.1408379, 0.229987], "includesElement__electronegativity_gordy": [0.0272, 0.02072368], "includesElement__electronegativity_mulliken": [4.29795, 3.419535], "includesElement__electronegativity_nagle": [0.5147142, 0.3386421], "includesElement__electronegativity_pauling": [2.28, 1.3], "includesElement__electronegativity_sanderson": [0.9761915, 0.7352125], "includesElement__en_ghosh": [0.1408379, 0.229987], "includesElement__en_pauling": [2.28, 1.3], "includesElement__evaporation_heat": [494.0, 575.0], "includesElement__fusion_heat": [21.8, 25.1], "includesElement__glawe_number": [63, 50], "includesElement__group_id": [9, 4], "includesElement__heat_of_formation": [556.0, 618.4], "includesElement__is_radioactive": [false], "includesElement__lattice_constant": [3.8, 3.2], "includesElement__mendeleev_number": [64, 45], "includesElement__molar_heat_capacity": [24.98, 25.73], "includesElement__period": [5, 6], "includesElement__pettifor_number": [66, 50], "includesElement__specific_heat_capacity": [0.243, 0.144], "includesElement__vdw_radius": [210.0, 223.0], "includesElement__vdw_radius_alvarez": [244.0, 263.0], "includesElement__vdw_radius_mm3": [234.0, 253.0], "includesElement__vdw_radius_uff": [292.9, 314.1], "includesElement__atomic_weight_uncertainty": [2e-05, 0.02], "includesElement__c6_gb": [708.0, 1040.0], "includesElement__electronegativity_allen": [9.259, 6.83], "includesElement__en_allen": [9.259, 6.83], "includesElement__metallic_radius": [125.0, 144.0], "includesElement__metallic_radius_c12": [134.0, 159.0], "includesElement__thermal_conductivity": [150.0, 23.0], "includesElement__vdw_radius_batsanov": [200.0, 225.0], "includesElement__is_monoisotopic": [true], "includesElement__gas_basicity": [745.4], "includesElement__proton_affinity": [768.0], "includesElement__abundance_sea": [7e-06], "formula": ["Hf1Rh1"], "spacegroup": ["221"], "thermalConductivity": [4.60807], "icsd": ["104265"], "band_gap": [0.0], "density": [13.6238], "density_atomic": [17.14897], "deprecated": [false], "efermi": [6.066466], "energy_above_hull": [0.0], "energy_per_atom": [-35.53889], "formation_energy_per_atom": [-0.8950686], "homogeneous_poisson": [0.367], "is_gap_direct": [false], "is_magnetic": [false], "is_metal": [true], "is_stable": [true], "nelements": [2], "nsites": [2], "num_magnetic_sites": [0], "num_unique_magnetic_sites": [0], "theoretical": [false], "total_magnetization": [0.002408], "total_magnetization_normalized_formula_units": [0.002408], "total_magnetization_normalized_vol": [7.020832e-05], "uncorrected_energy_per_atom": [-35.53889], "universal_anisotropy": [0.057], "volume": [34.29793], "equilibrium_reaction_energy_per_atom": [-0.05256355]}