{"includesElement": ["", "P", "Sc"], "includesElement___series_id": [1, 8], "includesElement__abundance_crust": [1050.0, 22.0], "includesElement__atomic_number": [15, 21], "includesElement__atomic_radius": [100.0, 160.0], "includesElement__atomic_radius_rahm": [223.0, 263.0], "includesElement__atomic_volume": [17.0, 15.0], "includesElement__atomic_weight": [30.97376, 44.95591], "includesElement__covalent_radius_cordero": [107.0, 170.0], "includesElement__covalent_radius_pyykko": [111.0, 148.0], "includesElement__covalent_radius_pyykko_double": [102.0, 116.0], "includesElement__covalent_radius_pyykko_triple": [94.0, 114.0], "includesElement__density": [1.823, 2.99], "includesElement__dipole_polarizability": [25.0, 97.0], "includesElement__dipole_polarizability_unc": [1.0, 10.0], "includesElement__discovery_year": [1669, 1879], "includesElement__electron_affinity": [0.746607, 0.188], "includesElement__electronegativity_allred-rochow": [0.0003895788, 0.0001369613], "includesElement__electronegativity_cottrell-sutton": [0.2079501, 0.1423737], "includesElement__electronegativity_ghosh": [0.206931, 0.1193833], "includesElement__electronegativity_gordy": [0.04324324, 0.02027027], "includesElement__electronegativity_mulliken": [5.616646, 3.374745], "includesElement__electronegativity_nagle": [0.5848035, 0.3138941], "includesElement__electronegativity_pauling": [2.19, 1.36], "includesElement__electronegativity_sanderson": [0.4510269, 0.3038674], "includesElement__en_ghosh": [0.206931, 0.1193833], "includesElement__en_pauling": [2.19, 1.36], "includesElement__evaporation_heat": [49.8, 332.7], "includesElement__fusion_heat": [2.51, 15.8], "includesElement__glawe_number": [89, 48], "includesElement__group_id": [15, 3], "includesElement__heat_of_formation": [316.5, 377.8], "includesElement__is_radioactive": [false], "includesElement__lattice_constant": [7.17, 3.31], "includesElement__mendeleev_number": [94, 11], "includesElement__molar_heat_capacity": [23.824, 25.52], "includesElement__period": [3, 4], "includesElement__pettifor_number": [90, 20], "includesElement__specific_heat_capacity": [0.769, 0.568], "includesElement__vdw_radius": [180.0, 215.0], "includesElement__vdw_radius_alvarez": [190.0, 258.0], "includesElement__vdw_radius_mm3": [222.0, 261.0], "includesElement__vdw_radius_uff": [414.7, 329.5], "includesElement__abundance_sea": [0.06, 6e-07], "includesElement__atomic_weight_uncertainty": [5e-09, 5e-06], "includesElement__c6_gb": [187.0, 1570.0], "includesElement__electronegativity_allen": [13.33, 7.042], "includesElement__en_allen": [13.33, 7.042], "includesElement__metallic_radius": [110.0, 144.0], "includesElement__metallic_radius_c12": [128.0, 162.0], "includesElement__vdw_radius_batsanov": [195.0, 230.0], "includesElement__c6": [185.0, 1383.0], "includesElement__is_monoisotopic": [true], "includesElement__vdw_radius_dreiding": [415.0], "includesElement__gas_basicity": [604.8, 892.0], "includesElement__proton_affinity": [626.8, 914.0], "includesElement__vdw_radius_bondi": [180.0], "includesElement__thermal_conductivity": [15.8], "formula": ["P8Sc12"], "spacegroup": ["62"], "thermalConductivity": [5.31467], "icsd": ["41679"], "band_gap": [0.0], "density": [3.418975], "density_atomic": [19.11798], "deprecated": [false], "efermi": [5.788174], "energy_above_hull": [0.01865966], "energy_per_atom": [-11.81832], "formation_energy_per_atom": [-1.378392], "is_gap_direct": [false], "is_magnetic": [true], "is_metal": [true], "is_stable": [false], "nelements": [2], "nsites": [20], "num_magnetic_sites": [4], "num_unique_magnetic_sites": [6], "theoretical": [false], "total_magnetization": [3.55633], "total_magnetization_normalized_formula_units": [0.8890826], "total_magnetization_normalized_vol": [0.009301011], "uncorrected_energy_per_atom": [-11.81832], "volume": [382.3595]}