{"includesElement": ["", "Ir", "Te"], "includesElement___series_id": [8, 5], "includesElement__abundance_crust": [0.001], "includesElement__atomic_number": [77, 52], "includesElement__atomic_radius": [135.0, 140.0], "includesElement__atomic_radius_rahm": [240.0, 242.0], "includesElement__atomic_volume": [8.54, 20.5], "includesElement__atomic_weight": [192.217, 127.6], "includesElement__covalent_radius_cordero": [141.0, 138.0], "includesElement__covalent_radius_pyykko": [122.0, 136.0], "includesElement__covalent_radius_pyykko_double": [115.0, 128.0], "includesElement__covalent_radius_pyykko_triple": [107.0, 121.0], "includesElement__density": [22.5622, 6.232], "includesElement__dipole_polarizability": [54.0, 38.0], "includesElement__dipole_polarizability_unc": [7.0, 4.0], "includesElement__discovery_year": [1804, 1782], "includesElement__electron_affinity": [1.5638, 1.970876], "includesElement__electronegativity_allred-rochow": [0.0002620263, 0.0003757569], "includesElement__electronegativity_cottrell-sutton": [0.1787938, 0.2260596], "includesElement__electronegativity_ghosh": [0.25106, 0.2056992], "includesElement__electronegativity_gordy": [0.03196721, 0.05110294], "includesElement__electronegativity_mulliken": [5.26541, 5.490268], "includesElement__electronegativity_nagle": [0.5503212, 0.5404919], "includesElement__electronegativity_pauling": [2.2, 2.1], "includesElement__electronegativity_sanderson": [1.475998, 0.8622506], "includesElement__en_ghosh": [0.25106, 0.2056992], "includesElement__en_pauling": [2.2, 2.1], "includesElement__evaporation_heat": [604.0, 49.8], "includesElement__fusion_heat": [27.61, 17.91], "includesElement__glawe_number": [62, 94], "includesElement__group_id": [9, 16], "includesElement__heat_of_formation": [669.0, 196.6], "includesElement__is_radioactive": [false], "includesElement__lattice_constant": [3.84, 4.45], "includesElement__mendeleev_number": [65, 102], "includesElement__molar_heat_capacity": [25.1, 25.73], "includesElement__period": [6, 5], "includesElement__pettifor_number": [65, 92], "includesElement__specific_heat_capacity": [0.131, 0.202], "includesElement__vdw_radius": [213.0, 206.0], "includesElement__vdw_radius_alvarez": [241.0, 199.0], "includesElement__vdw_radius_mm3": [236.0, 244.0], "includesElement__vdw_radius_uff": [284.0, 447.0], "includesElement__atomic_weight_uncertainty": [0.003, 0.03], "includesElement__c6_gb": [522.0, 471.0], "includesElement__electronegativity_allen": [9.96, 12.76], "includesElement__en_allen": [9.96, 12.76], "includesElement__metallic_radius": [127.0, 137.0], "includesElement__metallic_radius_c12": [136.0, 160.0], "includesElement__thermal_conductivity": [147.0, 14.3], "includesElement__vdw_radius_batsanov": [200.0, 210.0], "includesElement__covalent_radius_bragg": [133.0], "includesElement__c6": [445.0], "includesElement__vdw_radius_dreiding": [423.0], "includesElement__vdw_radius_bondi": [206.0], "formula": ["Ir3Te6"], "spacegroup": ["12"], "thermalConductivity": [3.52419], "icsd": ["90086"], "band_gap": [0.0], "density": [10.2127], "density_atomic": [24.24932], "deprecated": [false], "efermi": [8.045976], "energy_above_hull": [0.003042141], "energy_per_atom": [-34.76141], "formation_energy_per_atom": [-0.3634775], "homogeneous_poisson": [0.269], "is_gap_direct": [false], "is_magnetic": [false], "is_metal": [true], "is_stable": [false], "nelements": [2], "nsites": [9], "num_magnetic_sites": [0], "num_unique_magnetic_sites": [0], "theoretical": [false], "total_magnetization": [0.0], "total_magnetization_normalized_formula_units": [0.0], "total_magnetization_normalized_vol": [0.0], "uncorrected_energy_per_atom": [-34.76141], "universal_anisotropy": [0.625], "volume": [218.2439]}