{"includesElement": ["", "Tb", "C"], "includesElement___series_id": [9, 1], "includesElement__abundance_crust": [1.2, 200.0], "includesElement__atomic_number": [65, 6], "includesElement__atomic_radius": [175.0, 70.0], "includesElement__atomic_radius_rahm": [276.0, 190.0], "includesElement__atomic_volume": [19.2, 5.3], "includesElement__atomic_weight": [158.9254, 12.011], "includesElement__covalent_radius_cordero": [194.0, 73.0], "includesElement__covalent_radius_pyykko": [168.0, 75.0], "includesElement__covalent_radius_pyykko_double": [135.0, 67.0], "includesElement__density": [8.23, 2.2], "includesElement__dipole_polarizability": [170.0, 11.3], "includesElement__dipole_polarizability_unc": [20.0, 0.2], "includesElement__discovery_year": [1843], "includesElement__electron_affinity": [1.165, 1.262119], "includesElement__electronegativity_allred-rochow": [0.0001009779, 0.0005777778], "includesElement__electronegativity_cottrell-sutton": [0.130247, 0.2081666], "includesElement__electronegativity_ghosh": [0.198863, 0.224776], "includesElement__electronegativity_gordy": [0.01696429, 0.04333333], "includesElement__electronegativity_mulliken": [3.5144, 6.261208], "includesElement__electronegativity_nagle": [0.4014652, 0.7073926], "includesElement__electronegativity_sanderson": [0.5163695, 0.427525], "includesElement__en_ghosh": [0.198863, 0.224776], "includesElement__evaporation_heat": [389.0], "includesElement__glawe_number": [25, 87], "includesElement__heat_of_formation": [388.7, 716.87], "includesElement__is_radioactive": [false], "includesElement__lattice_constant": [3.6, 3.57], "includesElement__mendeleev_number": [29, 87], "includesElement__molar_heat_capacity": [28.91, 8.517], "includesElement__period": [6, 2], "includesElement__pettifor_number": [26, 95], "includesElement__specific_heat_capacity": [0.182, 0.709], "includesElement__vdw_radius": [233.0, 170.0], "includesElement__vdw_radius_alvarez": [279.0, 177.0], "includesElement__vdw_radius_mm3": [270.0, 204.0], "includesElement__vdw_radius_uff": [345.1, 385.1], "includesElement__abundance_sea": [1.4e-07, 28.0], "includesElement__atomic_weight_uncertainty": [2e-05], "includesElement__c6_gb": [2590.0, 47.9], "includesElement__thermal_conductivity": [11.1, 1.59], "includesElement__is_monoisotopic": [true], "includesElement__covalent_radius_pyykko_triple": [60.0], "includesElement__electronegativity_pauling": [2.55], "includesElement__en_pauling": [2.55], "includesElement__group_id": [14], "includesElement__covalent_radius_bragg": [77.0], "includesElement__electronegativity_allen": [15.05], "includesElement__en_allen": [15.05], "includesElement__metallic_radius_c12": [86.0], "includesElement__vdw_radius_batsanov": [170.0], "includesElement__c6": [46.6], "includesElement__vdw_radius_dreiding": [389.83], "includesElement__vdw_radius_bondi": [170.0], "includesElement__vdw_radius_rt": [177.0], "formula": ["C2Tb1"], "spacegroup": ["139"], "thermalConductivity": [10.7365], "icsd": ["17025"], "band_gap": [0.0], "density": [7.200852], "density_atomic": [14.0627], "deprecated": [false], "efermi": [4.403643], "energy_above_hull": [0.04377055], "energy_per_atom": [-7.884682], "formation_energy_per_atom": [-0.1862838], "homogeneous_poisson": [0.344], "is_gap_direct": [false], "is_magnetic": [false], "is_metal": [true], "is_stable": [false], "nelements": [2], "nsites": [3], "num_magnetic_sites": [0], "num_unique_magnetic_sites": [0], "theoretical": [false], "total_magnetization": [0.0], "total_magnetization_normalized_formula_units": [0.0], "total_magnetization_normalized_vol": [0.0], "uncorrected_energy_per_atom": [-17.40938], "universal_anisotropy": [15.577], "volume": [42.18809]}