{"includesElement": ["", "O", "Pt"], "includesElement___series_id": [1, 8], "includesElement__abundance_crust": [461000.0, 0.005], "includesElement__atomic_number": [8, 78], "includesElement__atomic_radius": [60.0, 135.0], "includesElement__atomic_radius_rahm": [171.0, 230.0], "includesElement__atomic_volume": [14.0, 9.1], "includesElement__atomic_weight": [15.999, 195.084], "includesElement__covalent_radius_cordero": [66.0, 136.0], "includesElement__covalent_radius_pyykko": [63.0, 123.0], "includesElement__covalent_radius_pyykko_double": [57.0, 112.0], "includesElement__covalent_radius_pyykko_triple": [53.0, 110.0], "includesElement__density": [0.001308, 21.5], "includesElement__dipole_polarizability": [5.3, 48.0], "includesElement__dipole_polarizability_unc": [0.2, 4.0], "includesElement__discovery_year": [1774, 1735], "includesElement__electron_affinity": [1.461113, 2.128], "includesElement__electronegativity_allred-rochow": [0.001146384, 0.0002346487], "includesElement__electronegativity_cottrell-sutton": [0.2687419, 0.1698876], "includesElement__electronegativity_ghosh": [0.304575, 0.25691], "includesElement__electronegativity_gordy": [0.07222222, 0.02886179], "includesElement__electronegativity_mulliken": [7.539584, 5.543415], "includesElement__electronegativity_nagle": [1.042218, 0.5928156], "includesElement__electronegativity_pauling": [3.44, 2.2], "includesElement__electronegativity_sanderson": [0.9416494, 1.45101], "includesElement__en_ghosh": [0.304575, 0.25691], "includesElement__en_pauling": [3.44, 2.2], "includesElement__glawe_number": [97, 64], "includesElement__group_id": [16, 10], "includesElement__heat_of_formation": [249.229, 565.7], "includesElement__is_radioactive": [false], "includesElement__lattice_constant": [6.83, 3.92], "includesElement__mendeleev_number": [99, 69], "includesElement__molar_heat_capacity": [29.378, 25.86], "includesElement__period": [2, 6], "includesElement__pettifor_number": [101, 68], "includesElement__specific_heat_capacity": [0.918, 0.133], "includesElement__vdw_radius": [152.0, 213.0], "includesElement__vdw_radius_alvarez": [150.0, 229.0], "includesElement__vdw_radius_mm3": [182.0, 239.0], "includesElement__vdw_radius_uff": [350.0, 275.4], "includesElement__abundance_sea": [857000.0], "includesElement__c6_gb": [16.7, 470.0], "includesElement__covalent_radius_bragg": [65.0], "includesElement__electronegativity_allen": [21.36, 10.16], "includesElement__en_allen": [21.36, 10.16], "includesElement__thermal_conductivity": [0.027, 71.6], "includesElement__vdw_radius_batsanov": [155.0, 205.0], "includesElement__c6": [15.6], "includesElement__vdw_radius_dreiding": [340.46], "includesElement__gas_basicity": [459.6], "includesElement__proton_affinity": [485.2], "includesElement__vdw_radius_bondi": [152.0], "includesElement__vdw_radius_rt": [158.0], "includesElement__evaporation_heat": [470.0], "includesElement__fusion_heat": [21.76], "includesElement__atomic_weight_uncertainty": [0.009], "includesElement__metallic_radius": [130.0], "includesElement__metallic_radius_c12": [139.0], "formula": ["O4Pt2"], "spacegroup": ["224"], "thermalConductivity": [0.262206], "icsd": ["77654"], "band_gap": [0.0], "density": [8.366226], "density_atomic": [15.02389], "deprecated": [false], "efermi": [2.191362], "energy_above_hull": [0.7936696], "energy_per_atom": [-20.97111], "formation_energy_per_atom": [0.1652258], "homogeneous_poisson": [0.249], "is_gap_direct": [false], "is_magnetic": [false], "is_metal": [true], "is_stable": [false], "nelements": [2], "nsites": [6], "num_magnetic_sites": [0], "num_unique_magnetic_sites": [0], "theoretical": [false], "total_magnetization": [0.2764453], "total_magnetization_normalized_formula_units": [0.1382227], "total_magnetization_normalized_vol": [0.003066729], "uncorrected_energy_per_atom": [-4.997285], "universal_anisotropy": [-12422.03], "volume": [90.14336]}