{"includesElement": ["", "Cd", "La"], "includesElement___series_id": [8, 9], "includesElement__abundance_crust": [0.15, 39.0], "includesElement__atomic_number": [48, 57], "includesElement__atomic_radius": [155.0, 195.0], "includesElement__atomic_radius_rahm": [238.0, 284.0], "includesElement__atomic_volume": [13.1, 22.5], "includesElement__atomic_weight": [112.414, 138.9055], "includesElement__covalent_radius_cordero": [144.0, 207.0], "includesElement__covalent_radius_pyykko": [136.0, 180.0], "includesElement__covalent_radius_pyykko_double": [144.0, 139.0], "includesElement__density": [8.69, 6.15], "includesElement__dipole_polarizability": [46.0, 215.0], "includesElement__dipole_polarizability_unc": [2.0, 20.0], "includesElement__discovery_year": [1817, 1839], "includesElement__electronegativity_allred-rochow": [0.000235186, 9.259259e-05], "includesElement__electronegativity_cottrell-sutton": [0.1788443, 0.1290994], "includesElement__electronegativity_ghosh": [0.1504066, 0.163142], "includesElement__electronegativity_gordy": [0.03198529, 0.01666667], "includesElement__electronegativity_mulliken": [4.496911, 3.02345], "includesElement__electronegativity_nagle": [0.6389612, 0.240747], "includesElement__electronegativity_pauling": [1.69, 1.1], "includesElement__electronegativity_sanderson": [0.801562, 0.3946505], "includesElement__en_ghosh": [0.1504066, 0.163142], "includesElement__en_pauling": [1.69, 1.1], "includesElement__evaporation_heat": [59.1, 402.0], "includesElement__fusion_heat": [6.11, 8.5], "includesElement__glawe_number": [75, 32], "includesElement__group_id": [12, 3], "includesElement__heat_of_formation": [111.8, 431.0], "includesElement__is_radioactive": [false], "includesElement__lattice_constant": [2.98, 3.75], "includesElement__mendeleev_number": [78, 13], "includesElement__molar_heat_capacity": [26.02, 27.11], "includesElement__period": [5, 6], "includesElement__pettifor_number": [75, 33], "includesElement__specific_heat_capacity": [0.232, 0.195], "includesElement__vdw_radius": [218.0, 243.0], "includesElement__vdw_radius_alvarez": [249.0, 298.0], "includesElement__vdw_radius_mm3": [250.0, 278.0], "includesElement__vdw_radius_uff": [284.8, 352.2], "includesElement__abundance_sea": [0.00011, 3.4e-06], "includesElement__atomic_weight_uncertainty": [0.004, 7e-05], "includesElement__c6_gb": [405.0, 3730.0], "includesElement__covalent_radius_bragg": [160.0], "includesElement__electronegativity_allen": [8.995], "includesElement__en_allen": [8.995], "includesElement__metallic_radius": [138.0, 169.0], "includesElement__metallic_radius_c12": [151.0, 187.0], "includesElement__thermal_conductivity": [96.9, 13.4], "includesElement__vdw_radius_batsanov": [220.0, 250.0], "includesElement__covalent_radius_pyykko_triple": [139.0], "includesElement__electron_affinity": [0.47], "includesElement__gas_basicity": [991.9], "includesElement__proton_affinity": [1013.0], "formula": ["Cd1La1"], "spacegroup": ["221"], "thermalConductivity": [3.11887], "icsd": ["102003"], "band_gap": [0.0], "density": [6.863348], "density_atomic": [30.40213], "deprecated": [false], "efermi": [5.646951], "energy_above_hull": [0.0], "energy_per_atom": [-3.25401], "formation_energy_per_atom": [-0.3060015], "homogeneous_poisson": [0.33], "is_gap_direct": [false], "is_magnetic": [false], "is_metal": [true], "is_stable": [true], "nelements": [2], "nsites": [2], "num_magnetic_sites": [0], "num_unique_magnetic_sites": [0], "theoretical": [false], "total_magnetization": [0.3486124], "total_magnetization_normalized_formula_units": [0.3486124], "total_magnetization_normalized_vol": [0.005733355], "uncorrected_energy_per_atom": [-25.30157], "universal_anisotropy": [3.111], "volume": [60.80426], "equilibrium_reaction_energy_per_atom": [-0.05063015]}