{"includesElement": ["", "N", "Tb"], "includesElement___series_id": [1, 9], "includesElement__abundance_crust": [19.0, 1.2], "includesElement__atomic_number": [7, 65], "includesElement__atomic_radius": [65.0, 175.0], "includesElement__atomic_radius_rahm": [179.0, 276.0], "includesElement__atomic_volume": [17.3, 19.2], "includesElement__atomic_weight": [14.007, 158.9254], "includesElement__covalent_radius_cordero": [71.0, 194.0], "includesElement__covalent_radius_pyykko": [71.0, 168.0], "includesElement__covalent_radius_pyykko_double": [60.0, 135.0], "includesElement__covalent_radius_pyykko_triple": [54.0], "includesElement__density": [0.001145, 8.23], "includesElement__dipole_polarizability": [7.4, 170.0], "includesElement__dipole_polarizability_unc": [0.2, 20.0], "includesElement__discovery_year": [1772, 1843], "includesElement__electron_affinity": [-1.4, 1.165], "includesElement__electronegativity_allred-rochow": [0.000773656, 0.0001009779], "includesElement__electronegativity_cottrell-sutton": [0.2343706, 0.130247], "includesElement__electronegativity_ghosh": [0.26493, 0.198863], "includesElement__electronegativity_gordy": [0.05492958, 0.01696429], "includesElement__electronegativity_mulliken": [6.567065, 3.5144], "includesElement__electronegativity_nagle": [0.8774979, 0.4014652], "includesElement__electronegativity_pauling": [3.04], "includesElement__electronegativity_sanderson": [0.577482, 0.5163695], "includesElement__en_ghosh": [0.26493, 0.198863], "includesElement__en_pauling": [3.04], "includesElement__glawe_number": [88, 25], "includesElement__group_id": [15], "includesElement__heat_of_formation": [472.44, 388.7], "includesElement__is_radioactive": [false], "includesElement__lattice_constant": [4.039, 3.6], "includesElement__mendeleev_number": [93, 29], "includesElement__molar_heat_capacity": [29.124, 28.91], "includesElement__period": [2, 6], "includesElement__pettifor_number": [100, 26], "includesElement__specific_heat_capacity": [1.04, 0.182], "includesElement__vdw_radius": [155.0, 233.0], "includesElement__vdw_radius_alvarez": [166.0, 279.0], "includesElement__vdw_radius_mm3": [193.0, 270.0], "includesElement__vdw_radius_uff": [366.0, 345.1], "includesElement__abundance_sea": [0.5, 1.4e-07], "includesElement__c6_gb": [25.7, 2590.0], "includesElement__covalent_radius_bragg": [65.0], "includesElement__electronegativity_allen": [18.13], "includesElement__en_allen": [18.13], "includesElement__metallic_radius_c12": [53.0], "includesElement__thermal_conductivity": [0.026, 11.1], "includesElement__vdw_radius_batsanov": [160.0], "includesElement__c6": [24.2], "includesElement__vdw_radius_dreiding": [366.21], "includesElement__gas_basicity": [318.7], "includesElement__proton_affinity": [342.2], "includesElement__vdw_radius_bondi": [155.0], "includesElement__vdw_radius_rt": [164.0], "includesElement__evaporation_heat": [389.0], "includesElement__atomic_weight_uncertainty": [2e-05], "includesElement__is_monoisotopic": [true], "formula": ["N1Tb1"], "spacegroup": ["225"], "thermalConductivity": [35.4666], "icsd": ["169205"], "band_gap": [0.0134], "density": [9.613317], "density_atomic": [14.93555], "deprecated": [false], "efermi": [3.991647], "energy_above_hull": [0.0], "energy_per_atom": [-22.15454], "formation_energy_per_atom": [-1.976948], "homogeneous_poisson": [0.196], "is_gap_direct": [false], "is_magnetic": [false], "is_metal": [false], "is_stable": [true], "nelements": [2], "nsites": [2], "num_magnetic_sites": [0], "num_unique_magnetic_sites": [0], "theoretical": [false], "total_magnetization": [0.0], "total_magnetization_normalized_formula_units": [0.0], "total_magnetization_normalized_vol": [0.0], "uncorrected_energy_per_atom": [-22.15454], "universal_anisotropy": [0.001], "volume": [29.87111], "cbm": [3.9993], "equilibrium_reaction_energy_per_atom": [-1.976948], "vbm": [3.9859]}