{"includesElement": ["", "As", "Th"], "includesElement___series_id": [5, 10], "includesElement__abundance_crust": [1.8, 9.6], "includesElement__atomic_number": [33, 90], "includesElement__atomic_radius": [115.0, 180.0], "includesElement__atomic_radius_rahm": [231.0, 288.0], "includesElement__atomic_volume": [13.1, 19.8], "includesElement__atomic_weight": [74.92159, 232.0377], "includesElement__covalent_radius_cordero": [119.0, 206.0], "includesElement__covalent_radius_pyykko": [121.0, 175.0], "includesElement__covalent_radius_pyykko_double": [114.0, 143.0], "includesElement__covalent_radius_pyykko_triple": [106.0, 136.0], "includesElement__density": [5.75, 11.7], "includesElement__dipole_polarizability": [30.0, 217.0], "includesElement__dipole_polarizability_unc": [1.0, 54.0], "includesElement__electron_affinity": [0.804], "includesElement__electronegativity_allred-rochow": [0.0004302985, 0.0001028571], "includesElement__electronegativity_cottrell-sutton": [0.22818, 0.1341641], "includesElement__electronegativity_ghosh": [0.2068208, 0.10277], "includesElement__electronegativity_gordy": [0.05206612, 0.018], "includesElement__electronegativity_mulliken": [5.2965, 3.15335], "includesElement__electronegativity_nagle": [0.5503212, 0.2641598], "includesElement__electronegativity_pauling": [2.18, 1.3], "includesElement__electronegativity_sanderson": [0.8253373, 0.5557019], "includesElement__en_ghosh": [0.2068208, 0.10277], "includesElement__en_pauling": [2.18, 1.3], "includesElement__evaporation_heat": [32.4, 513.7], "includesElement__glawe_number": [90, 34], "includesElement__group_id": [15], "includesElement__heat_of_formation": [302.5, 602.0], "includesElement__is_radioactive": [false, true], "includesElement__lattice_constant": [4.13, 5.08], "includesElement__mendeleev_number": [95, 16], "includesElement__molar_heat_capacity": [24.64, 27.32], "includesElement__period": [4, 7], "includesElement__pettifor_number": [89, 47], "includesElement__specific_heat_capacity": [0.329, 0.118], "includesElement__vdw_radius": [185.0, 245.0], "includesElement__vdw_radius_alvarez": [188.0, 293.0], "includesElement__vdw_radius_mm3": [236.0, 274.0], "includesElement__vdw_radius_uff": [423.0, 339.6], "includesElement__abundance_sea": [0.0037, 1e-06], "includesElement__atomic_weight_uncertainty": [6e-06, 0.0004], "includesElement__c6_gb": [260.0], "includesElement__covalent_radius_bragg": [126.0], "includesElement__electronegativity_allen": [13.08], "includesElement__en_allen": [13.08], "includesElement__metallic_radius": [121.0], "includesElement__metallic_radius_c12": [148.0], "includesElement__vdw_radius_batsanov": [205.0, 240.0], "includesElement__c6": [246.0], "includesElement__is_monoisotopic": [true], "includesElement__vdw_radius_dreiding": [415.0], "includesElement__vdw_radius_bondi": [185.0], "includesElement__discovery_year": [1828], "includesElement__fusion_heat": [16.11], "formula": ["As1Th1"], "spacegroup": ["225"], "thermalConductivity": [8.14544], "icsd": ["44073"], "band_gap": [0.0], "density": [9.374845], "density_atomic": [27.18544], "deprecated": [false], "efermi": [6.909287], "energy_above_hull": [0.0], "energy_per_atom": [-45.70031], "formation_energy_per_atom": [-1.608918], "homogeneous_poisson": [0.294], "is_gap_direct": [false], "is_magnetic": [false], "is_metal": [true], "is_stable": [true], "nelements": [2], "nsites": [2], "num_magnetic_sites": [0], "num_unique_magnetic_sites": [0], "theoretical": [false], "total_magnetization": [2.1e-06], "total_magnetization_normalized_formula_units": [2.1e-06], "total_magnetization_normalized_vol": [3.862362e-08], "uncorrected_energy_per_atom": [-45.70031], "universal_anisotropy": [2.898], "volume": [54.37087], "equilibrium_reaction_energy_per_atom": [-0.2457621]}