{"includesElement": ["", "Si", "Y"], "includesElement___series_id": [5, 8], "includesElement__abundance_crust": [282000.0, 33.0], "includesElement__atomic_number": [14, 39], "includesElement__atomic_radius": [110.0, 180.0], "includesElement__atomic_radius_rahm": [232.0, 274.0], "includesElement__atomic_volume": [12.1, 19.8], "includesElement__atomic_weight": [28.085, 88.90584], "includesElement__covalent_radius_cordero": [111.0, 190.0], "includesElement__covalent_radius_pyykko": [116.0, 163.0], "includesElement__covalent_radius_pyykko_double": [107.0, 130.0], "includesElement__covalent_radius_pyykko_triple": [102.0, 124.0], "includesElement__density": [2.3296, 4.47], "includesElement__dipole_polarizability": [37.3, 162.0], "includesElement__dipole_polarizability_unc": [0.7, 12.0], "includesElement__discovery_year": [1824, 1789], "includesElement__electron_affinity": [1.389521, 0.307], "includesElement__electronegativity_allred-rochow": [0.0003084126, 0.0001129135], "includesElement__electronegativity_cottrell-sutton": [0.1891451, 0.1356647], "includesElement__electronegativity_ghosh": [0.178503, 0.1216986], "includesElement__electronegativity_gordy": [0.03577586, 0.01840491], "includesElement__electronegativity_mulliken": [4.770602, 3.26213], "includesElement__electronegativity_nagle": [0.4750986, 0.2645668], "includesElement__electronegativity_pauling": [1.9, 1.22], "includesElement__electronegativity_sanderson": [0.3468158, 0.3923941], "includesElement__en_ghosh": [0.178503, 0.1216986], "includesElement__en_pauling": [1.9, 1.22], "includesElement__evaporation_heat": [383.0, 367.0], "includesElement__fusion_heat": [50.6, 11.5], "includesElement__glawe_number": [85, 21], "includesElement__group_id": [14, 3], "includesElement__heat_of_formation": [450.0, 424.7], "includesElement__is_radioactive": [false], "includesElement__lattice_constant": [5.43, 3.65], "includesElement__mendeleev_number": [88, 12], "includesElement__molar_heat_capacity": [19.99, 26.53], "includesElement__period": [3, 5], "includesElement__pettifor_number": [85, 19], "includesElement__specific_heat_capacity": [0.712, 0.298], "includesElement__vdw_radius": [210.0, 232.0], "includesElement__vdw_radius_alvarez": [219.0, 275.0], "includesElement__vdw_radius_mm3": [229.0, 271.0], "includesElement__vdw_radius_uff": [429.5, 334.5], "includesElement__abundance_sea": [2.2, 1.3e-05], "includesElement__c6_gb": [308.0, 2600.0], "includesElement__covalent_radius_bragg": [117.0], "includesElement__electronegativity_allen": [11.33, 6.631], "includesElement__en_allen": [11.33, 6.631], "includesElement__metallic_radius": [117.0, 162.0], "includesElement__metallic_radius_c12": [138.0, 180.0], "includesElement__thermal_conductivity": [149.0], "includesElement__vdw_radius_batsanov": [210.0, 240.0], "includesElement__c6": [305.0], "includesElement__vdw_radius_dreiding": [427.0], "includesElement__gas_basicity": [814.1, 945.9], "includesElement__proton_affinity": [837.0, 967.0], "includesElement__vdw_radius_bondi": [210.0], "includesElement__atomic_weight_uncertainty": [2e-05], "includesElement__is_monoisotopic": [true], "formula": ["Si2Y2"], "spacegroup": ["63"], "thermalConductivity": [15.8899], "icsd": ["262364"], "band_gap": [0.0], "density": [4.474689], "density_atomic": [21.70751], "deprecated": [false], "efermi": [5.55289], "energy_above_hull": [0.0], "energy_per_atom": [-15.44191], "formation_energy_per_atom": [-0.8982283], "homogeneous_poisson": [0.205], "is_gap_direct": [false], "is_magnetic": [false], "is_metal": [true], "is_stable": [true], "nelements": [2], "nsites": [4], "num_magnetic_sites": [0], "num_unique_magnetic_sites": [0], "theoretical": [false], "total_magnetization": [0.0003843], "total_magnetization_normalized_formula_units": [0.00019215], "total_magnetization_normalized_vol": [4.425888e-06], "uncorrected_energy_per_atom": [-15.44191], "universal_anisotropy": [0.447], "volume": [86.83004], "equilibrium_reaction_energy_per_atom": [-0.2708648]}