{"includesElement": ["", "O", "V"], "includesElement___series_id": [1, 8], "includesElement__abundance_crust": [461000.0, 120.0], "includesElement__atomic_number": [8, 23], "includesElement__atomic_radius": [60.0, 135.0], "includesElement__atomic_radius_rahm": [171.0, 252.0], "includesElement__atomic_volume": [14.0, 8.35], "includesElement__atomic_weight": [15.999, 50.9415], "includesElement__covalent_radius_cordero": [66.0, 153.0], "includesElement__covalent_radius_pyykko": [63.0, 134.0], "includesElement__covalent_radius_pyykko_double": [57.0, 112.0], "includesElement__covalent_radius_pyykko_triple": [53.0, 106.0], "includesElement__density": [0.001308, 6.0], "includesElement__dipole_polarizability": [5.3, 87.0], "includesElement__dipole_polarizability_unc": [0.2, 10.0], "includesElement__discovery_year": [1774, 1830], "includesElement__electron_affinity": [1.461113, 0.525], "includesElement__electronegativity_allred-rochow": [0.001146384, 0.0001837826], "includesElement__electronegativity_cottrell-sutton": [0.2687419, 0.1569295], "includesElement__electronegativity_ghosh": [0.304575, 0.1273344], "includesElement__electronegativity_gordy": [0.07222222, 0.02462687], "includesElement__electronegativity_mulliken": [7.539584, 3.635594], "includesElement__electronegativity_nagle": [1.042218, 0.3859078], "includesElement__electronegativity_pauling": [3.44, 1.63], "includesElement__electronegativity_sanderson": [0.9416494, 0.4388898], "includesElement__en_ghosh": [0.304575, 0.1273344], "includesElement__en_pauling": [3.44, 1.63], "includesElement__glawe_number": [97, 54], "includesElement__group_id": [16, 5], "includesElement__heat_of_formation": [249.229, 515.5], "includesElement__is_radioactive": [false], "includesElement__lattice_constant": [6.83, 3.02], "includesElement__mendeleev_number": [99, 47], "includesElement__molar_heat_capacity": [29.378, 24.89], "includesElement__period": [2, 4], "includesElement__pettifor_number": [101, 54], "includesElement__specific_heat_capacity": [0.918, 0.489], "includesElement__vdw_radius": [152.0, 207.0], "includesElement__vdw_radius_alvarez": [150.0, 242.0], "includesElement__vdw_radius_mm3": [182.0, 229.0], "includesElement__vdw_radius_uff": [350.0, 314.4], "includesElement__abundance_sea": [857000.0, 0.0025], "includesElement__c6_gb": [16.7, 955.0], "includesElement__covalent_radius_bragg": [65.0], "includesElement__electronegativity_allen": [21.36, 9.063], "includesElement__en_allen": [21.36, 9.063], "includesElement__thermal_conductivity": [0.027, 30.7], "includesElement__vdw_radius_batsanov": [155.0, 205.0], "includesElement__c6": [15.6, 832.0], "includesElement__vdw_radius_dreiding": [340.46], "includesElement__gas_basicity": [459.6, 836.8], "includesElement__proton_affinity": [485.2, 859.4], "includesElement__vdw_radius_bondi": [152.0], "includesElement__vdw_radius_rt": [158.0], "includesElement__evaporation_heat": [460.0], "includesElement__fusion_heat": [17.5], "includesElement__atomic_weight_uncertainty": [0.0001], "includesElement__metallic_radius": [122.0], "includesElement__metallic_radius_c12": [134.0], "formula": ["O1V1"], "spacegroup": ["225"], "thermalConductivity": [25.0924], "icsd": ["28681"], "band_gap": [0.9701], "density": [5.318033], "density_atomic": [10.45104], "deprecated": [false], "efermi": [6.091736], "energy_above_hull": [0.02183532], "energy_per_atom": [-9.106221], "formation_energy_per_atom": [-2.088136], "is_gap_direct": [false], "is_magnetic": [true], "is_metal": [false], "is_stable": [false], "nelements": [2], "nsites": [4], "num_magnetic_sites": [1], "num_unique_magnetic_sites": [1], "theoretical": [false], "total_magnetization": [5.933395], "total_magnetization_normalized_formula_units": [2.966697], "total_magnetization_normalized_vol": [0.1419331], "uncorrected_energy_per_atom": [-7.912721], "volume": [41.80417], "cbm": [7.0538], "vbm": [6.0837]}