{"includesElement": ["", "Al", "Ta"], "includesElement___series_id": [7, 8], "includesElement__abundance_crust": [82300.0, 2.0], "includesElement__atomic_number": [13, 73], "includesElement__atomic_radius": [125.0, 145.0], "includesElement__atomic_radius_rahm": [239.0, 258.0], "includesElement__atomic_volume": [10.0, 10.9], "includesElement__atomic_weight": [26.98154, 180.9479], "includesElement__covalent_radius_cordero": [121.0, 170.0], "includesElement__covalent_radius_pyykko": [126.0, 146.0], "includesElement__covalent_radius_pyykko_double": [113.0, 126.0], "includesElement__covalent_radius_pyykko_triple": [111.0, 119.0], "includesElement__density": [2.7, 16.4], "includesElement__dipole_polarizability": [57.8, 74.0], "includesElement__dipole_polarizability_unc": [1.0, 20.0], "includesElement__discovery_year": [1825, 1802], "includesElement__electron_affinity": [0.43283, 0.322], "includesElement__electronegativity_allred-rochow": [0.0002204586, 0.0001548133], "includesElement__electronegativity_cottrell-sutton": [0.1666667, 0.1503421], "includesElement__electronegativity_ghosh": [0.150078, 0.234581], "includesElement__electronegativity_gordy": [0.02777778, 0.02260274], "includesElement__electronegativity_mulliken": [3.209299, 3.935785], "includesElement__electronegativity_nagle": [0.3730192, 0.4072985], "includesElement__electronegativity_pauling": [1.61, 1.5], "includesElement__electronegativity_sanderson": [0.2360927, 0.8358832], "includesElement__en_ghosh": [0.150078, 0.234581], "includesElement__en_pauling": [1.61, 1.5], "includesElement__evaporation_heat": [284.1, 758.0], "includesElement__fusion_heat": [10.75, 24.7], "includesElement__glawe_number": [78, 52], "includesElement__group_id": [13, 5], "includesElement__heat_of_formation": [330.9, 782.0], "includesElement__is_radioactive": [false], "includesElement__lattice_constant": [4.05, 3.31], "includesElement__mendeleev_number": [82, 49], "includesElement__molar_heat_capacity": [24.2, 25.36], "includesElement__period": [3, 6], "includesElement__pettifor_number": [80, 53], "includesElement__specific_heat_capacity": [0.897, 0.14], "includesElement__vdw_radius": [184.0, 222.0], "includesElement__vdw_radius_alvarez": [225.0, 253.0], "includesElement__vdw_radius_mm3": [236.0, 243.0], "includesElement__vdw_radius_uff": [449.9, 317.0], "includesElement__abundance_sea": [0.002, 2e-06], "includesElement__atomic_weight_uncertainty": [7e-07, 2e-05], "includesElement__c6_gb": [520.0, 887.0], "includesElement__covalent_radius_bragg": [135.0], "includesElement__electronegativity_allen": [9.539, 7.93], "includesElement__en_allen": [9.539, 7.93], "includesElement__metallic_radius": [125.0, 134.0], "includesElement__metallic_radius_c12": [143.0, 146.0], "includesElement__thermal_conductivity": [237.0, 57.5], "includesElement__vdw_radius_batsanov": [210.0, 220.0], "includesElement__c6": [528.0], "includesElement__is_monoisotopic": [true], "includesElement__vdw_radius_dreiding": [439.0], "includesElement__vdw_radius_truhlar": [184.0], "formula": ["Al3Ta1"], "spacegroup": ["139"], "thermalConductivity": [20.9283], "icsd": ["107889"], "band_gap": [0.0], "density": [6.958264], "density_atomic": [15.62468], "deprecated": [false], "efermi": [7.965816], "energy_above_hull": [0.0], "energy_per_atom": [-17.57066], "formation_energy_per_atom": [-0.3736265], "homogeneous_poisson": [0.19], "is_gap_direct": [false], "is_magnetic": [false], "is_metal": [true], "is_stable": [true], "nelements": [2], "nsites": [4], "num_magnetic_sites": [0], "num_unique_magnetic_sites": [0], "theoretical": [false], "total_magnetization": [6.1e-06], "total_magnetization_normalized_formula_units": [6.1e-06], "total_magnetization_normalized_vol": [9.760197e-08], "uncorrected_energy_per_atom": [-17.57066], "universal_anisotropy": [0.169], "volume": [62.49874], "equilibrium_reaction_energy_per_atom": [-0.2627382]}