{"includesElement": ["", "Se", "Tb"], "includesElement___series_id": [1, 9], "includesElement__abundance_crust": [0.05, 1.2], "includesElement__atomic_number": [34, 65], "includesElement__atomic_radius": [115.0, 175.0], "includesElement__atomic_radius_rahm": [224.0, 276.0], "includesElement__atomic_volume": [16.5, 19.2], "includesElement__atomic_weight": [78.971, 158.9254], "includesElement__covalent_radius_cordero": [120.0, 194.0], "includesElement__covalent_radius_pyykko": [116.0, 168.0], "includesElement__covalent_radius_pyykko_double": [107.0, 135.0], "includesElement__covalent_radius_pyykko_triple": [107.0], "includesElement__density": [4.809, 8.23], "includesElement__dipole_polarizability": [28.9, 170.0], "includesElement__dipole_polarizability_unc": [1.0, 20.0], "includesElement__discovery_year": [1818, 1843], "includesElement__electron_affinity": [2.02067, 1.165], "includesElement__electronegativity_allred-rochow": [0.0005164982, 0.0001009779], "includesElement__electronegativity_cottrell-sutton": [0.2447729, 0.130247], "includesElement__electronegativity_ghosh": [0.2240328, 0.198863], "includesElement__electronegativity_gordy": [0.05991379, 0.01696429], "includesElement__electronegativity_mulliken": [5.886531, 3.5144], "includesElement__electronegativity_nagle": [0.592131, 0.4014652], "includesElement__electronegativity_pauling": [2.55], "includesElement__electronegativity_sanderson": [0.9659121, 0.5163695], "includesElement__en_ghosh": [0.2240328, 0.198863], "includesElement__en_pauling": [2.55], "includesElement__evaporation_heat": [59.7, 389.0], "includesElement__fusion_heat": [5.23], "includesElement__glawe_number": [95, 25], "includesElement__group_id": [16], "includesElement__heat_of_formation": [227.2, 388.7], "includesElement__is_radioactive": [false], "includesElement__lattice_constant": [4.36, 3.6], "includesElement__mendeleev_number": [101, 29], "includesElement__molar_heat_capacity": [25.363, 28.91], "includesElement__period": [4, 6], "includesElement__pettifor_number": [93, 26], "includesElement__specific_heat_capacity": [0.321, 0.182], "includesElement__vdw_radius": [190.0, 233.0], "includesElement__vdw_radius_alvarez": [182.0, 279.0], "includesElement__vdw_radius_mm3": [229.0, 270.0], "includesElement__vdw_radius_uff": [420.5, 345.1], "includesElement__abundance_sea": [0.0002, 1.4e-07], "includesElement__atomic_weight_uncertainty": [0.008, 2e-05], "includesElement__c6_gb": [233.0, 2590.0], "includesElement__covalent_radius_bragg": [117.0], "includesElement__electronegativity_allen": [14.34], "includesElement__en_allen": [14.34], "includesElement__metallic_radius": [117.0], "includesElement__metallic_radius_c12": [140.0], "includesElement__thermal_conductivity": [0.52, 11.1], "includesElement__vdw_radius_batsanov": [190.0], "includesElement__c6": [210.0], "includesElement__vdw_radius_dreiding": [403.0], "includesElement__vdw_radius_bondi": [190.0], "includesElement__is_monoisotopic": [true], "formula": ["Se1Tb1"], "spacegroup": ["225"], "thermalConductivity": [4.93335], "icsd": ["43605"], "band_gap": [0.0], "density": [8.236848], "density_atomic": [23.97871], "deprecated": [false], "efermi": [5.655924], "energy_above_hull": [0.0], "energy_per_atom": [-6.064204], "formation_energy_per_atom": [-1.997316], "homogeneous_poisson": [0.334], "is_gap_direct": [false], "is_magnetic": [false], "is_metal": [true], "is_stable": [true], "nelements": [2], "nsites": [2], "num_magnetic_sites": [0], "num_unique_magnetic_sites": [0], "theoretical": [false], "total_magnetization": [7e-07], "total_magnetization_normalized_formula_units": [7e-07], "total_magnetization_normalized_vol": [1.459628e-08], "uncorrected_energy_per_atom": [-24.79886], "universal_anisotropy": [7.08], "volume": [47.95741], "equilibrium_reaction_energy_per_atom": [-0.2026648]}