{"includesElement": ["", "O", "Os"], "includesElement___series_id": [1, 8], "includesElement__abundance_crust": [461000.0, 0.0015], "includesElement__atomic_number": [8, 76], "includesElement__atomic_radius": [60.0, 130.0], "includesElement__atomic_radius_rahm": [171.0, 244.0], "includesElement__atomic_volume": [14.0, 8.43], "includesElement__atomic_weight": [15.999, 190.23], "includesElement__covalent_radius_cordero": [66.0, 144.0], "includesElement__covalent_radius_pyykko": [63.0, 129.0], "includesElement__covalent_radius_pyykko_double": [57.0, 116.0], "includesElement__covalent_radius_pyykko_triple": [53.0, 109.0], "includesElement__density": [0.001308, 22.5872], "includesElement__dipole_polarizability": [5.3, 57.0], "includesElement__dipole_polarizability_unc": [0.2, 3.0], "includesElement__discovery_year": [1774, 1804], "includesElement__electron_affinity": [1.461113, 1.1], "includesElement__electronegativity_allred-rochow": [0.001146384, 0.000225347], "includesElement__electronegativity_cottrell-sutton": [0.2687419, 0.1704986], "includesElement__electronegativity_ghosh": [0.304575, 0.2479845], "includesElement__electronegativity_gordy": [0.07222222, 0.02906977], "includesElement__electronegativity_mulliken": [7.539584, 4.769115], "includesElement__electronegativity_nagle": [1.042218, 0.5196828], "includesElement__electronegativity_pauling": [3.44, 2.2], "includesElement__electronegativity_sanderson": [0.9416494, 1.239276], "includesElement__en_ghosh": [0.304575, 0.2479845], "includesElement__en_pauling": [3.44, 2.2], "includesElement__glawe_number": [97, 60], "includesElement__group_id": [16, 8], "includesElement__heat_of_formation": [249.229, 787.0], "includesElement__is_radioactive": [false], "includesElement__lattice_constant": [6.83, 2.74], "includesElement__mendeleev_number": [99, 61], "includesElement__molar_heat_capacity": [29.378, 24.7], "includesElement__period": [2, 6], "includesElement__pettifor_number": [101, 62], "includesElement__specific_heat_capacity": [0.918, 0.13], "includesElement__vdw_radius": [152.0, 216.0], "includesElement__vdw_radius_alvarez": [150.0, 248.0], "includesElement__vdw_radius_mm3": [182.0, 235.0], "includesElement__vdw_radius_uff": [350.0, 312.0], "includesElement__abundance_sea": [857000.0], "includesElement__c6_gb": [16.7, 584.0], "includesElement__covalent_radius_bragg": [65.0], "includesElement__electronegativity_allen": [21.36, 9.78], "includesElement__en_allen": [21.36, 9.78], "includesElement__thermal_conductivity": [0.027], "includesElement__vdw_radius_batsanov": [155.0, 200.0], "includesElement__c6": [15.6], "includesElement__vdw_radius_dreiding": [340.46], "includesElement__gas_basicity": [459.6], "includesElement__proton_affinity": [485.2], "includesElement__vdw_radius_bondi": [152.0], "includesElement__vdw_radius_rt": [158.0], "includesElement__evaporation_heat": [738.0], "includesElement__fusion_heat": [31.7], "includesElement__atomic_weight_uncertainty": [0.03], "includesElement__metallic_radius": [126.0], "includesElement__metallic_radius_c12": [135.0], "formula": ["O4Os2"], "spacegroup": ["136"], "thermalConductivity": [10.2115], "icsd": ["15070"], "band_gap": [0.0], "density": [11.46791], "density_atomic": [10.72615], "deprecated": [false], "efermi": [5.033024], "energy_above_hull": [0.0], "energy_per_atom": [-8.384497], "formation_energy_per_atom": [-1.340532], "homogeneous_poisson": [0.336], "is_gap_direct": [false], "is_magnetic": [false], "is_metal": [true], "is_stable": [true], "nelements": [2], "nsites": [6], "num_magnetic_sites": [0], "num_unique_magnetic_sites": [0], "theoretical": [false], "total_magnetization": [0.0], "total_magnetization_normalized_formula_units": [0.0], "total_magnetization_normalized_vol": [0.0], "uncorrected_energy_per_atom": [-22.6566], "universal_anisotropy": [3.208], "volume": [64.35693], "equilibrium_reaction_energy_per_atom": [-0.07029238]}