{"includesElement": ["", "Tl", "Er"], "includesElement___series_id": [7, 9], "includesElement__abundance_crust": [0.85, 3.5], "includesElement__atomic_number": [81, 68], "includesElement__atomic_radius": [190.0, 175.0], "includesElement__atomic_radius_rahm": [242.0, 272.0], "includesElement__atomic_volume": [17.2, 18.4], "includesElement__atomic_weight": [204.38, 167.259], "includesElement__covalent_radius_cordero": [145.0, 189.0], "includesElement__covalent_radius_pyykko": [144.0, 165.0], "includesElement__covalent_radius_pyykko_double": [142.0, 133.0], "includesElement__covalent_radius_pyykko_triple": [150.0], "includesElement__density": [11.8, 9.07], "includesElement__dipole_polarizability": [50.0, 150.0], "includesElement__dipole_polarizability_unc": [2.0, 10.0], "includesElement__discovery_year": [1861, 1843], "includesElement__electron_affinity": [0.377], "includesElement__electronegativity_allred-rochow": [0.0002411265, 0.0001046832], "includesElement__electronegativity_cottrell-sutton": [0.186339, 0.1314257], "includesElement__electronegativity_ghosh": [0.173447, 0.212261], "includesElement__electronegativity_gordy": [0.03472222, 0.01727273], "includesElement__electronegativity_mulliken": [3.242643, 3.05385], "includesElement__electronegativity_nagle": [0.3914868, 0.4536061], "includesElement__electronegativity_pauling": [1.8, 1.24], "includesElement__electronegativity_sanderson": [0.9245096, 0.5576573], "includesElement__en_ghosh": [0.173447, 0.212261], "includesElement__en_pauling": [1.8, 1.24], "includesElement__evaporation_heat": [162.4, 317.0], "includesElement__fusion_heat": [4.31], "includesElement__glawe_number": [81, 22], "includesElement__group_id": [13], "includesElement__heat_of_formation": [182.2, 316.4], "includesElement__is_radioactive": [false], "includesElement__lattice_constant": [3.46, 3.56], "includesElement__mendeleev_number": [85, 35], "includesElement__molar_heat_capacity": [26.32, 28.12], "includesElement__period": [6], "includesElement__pettifor_number": [78, 23], "includesElement__specific_heat_capacity": [0.129, 0.168], "includesElement__vdw_radius": [196.0, 229.0], "includesElement__vdw_radius_alvarez": [247.0, 283.0], "includesElement__vdw_radius_mm3": [259.0, 267.0], "includesElement__vdw_radius_uff": [434.7, 339.1], "includesElement__abundance_sea": [1.9e-05, 8.7e-07], "includesElement__c6_gb": [509.0, 2150.0], "includesElement__covalent_radius_bragg": [190.0], "includesElement__metallic_radius": [144.0], "includesElement__metallic_radius_c12": [160.0], "includesElement__thermal_conductivity": [46.1], "includesElement__vdw_radius_batsanov": [220.0], "includesElement__vdw_radius_bondi": [196.0], "includesElement__atomic_weight_uncertainty": [0.003], "formula": ["Er1Tl3"], "spacegroup": ["221"], "thermalConductivity": [0.372102], "icsd": ["103313"], "band_gap": [0.0], "density": [12.47133], "density_atomic": [25.97758], "deprecated": [false], "efermi": [6.302947], "energy_above_hull": [0.0], "energy_per_atom": [-3.112319], "formation_energy_per_atom": [-0.191785], "is_gap_direct": [false], "is_magnetic": [false], "is_metal": [true], "is_stable": [true], "nelements": [2], "nsites": [4], "num_magnetic_sites": [0], "num_unique_magnetic_sites": [0], "theoretical": [false], "total_magnetization": [8e-07], "total_magnetization_normalized_formula_units": [8e-07], "total_magnetization_normalized_vol": [7.698948e-09], "uncorrected_energy_per_atom": [-48.61426], "volume": [103.9103], "equilibrium_reaction_energy_per_atom": [-0.04025018]}