{"includesElement": ["", "Li", "Bi"], "includesElement___series_id": [3, 7], "includesElement__abundance_crust": [20.0, 0.0085], "includesElement__atomic_number": [3, 83], "includesElement__atomic_radius": [145.0, 160.0], "includesElement__atomic_radius_rahm": [220.0, 250.0], "includesElement__atomic_volume": [13.1, 21.3], "includesElement__atomic_weight": [6.94, 208.9804], "includesElement__covalent_radius_cordero": [128.0, 148.0], "includesElement__covalent_radius_pyykko": [133.0, 151.0], "includesElement__covalent_radius_pyykko_double": [124.0, 141.0], "includesElement__density": [0.534, 9.79], "includesElement__dipole_polarizability": [164.1125, 48.0], "includesElement__dipole_polarizability_unc": [0.0005, 4.0], "includesElement__discovery_year": [1817], "includesElement__electron_affinity": [0.618049, 0.942362], "includesElement__electronegativity_allred-rochow": [7.3492e-05, 0.0002763037], "includesElement__electronegativity_cottrell-sutton": [0.09886575, 0.2042593], "includesElement__electronegativity_ghosh": [0.105093, 0.182377], "includesElement__electronegativity_gordy": [0.009774436, 0.04172185], "includesElement__electronegativity_mulliken": [3.004882, 4.113939], "includesElement__electronegativity_nagle": [0.1826499, 0.470518], "includesElement__electronegativity_pauling": [0.98, 1.9], "includesElement__electronegativity_sanderson": [0.04886793, 0.8136501], "includesElement__en_ghosh": [0.105093, 0.182377], "includesElement__en_pauling": [0.98, 1.9], "includesElement__evaporation_heat": [148.0, 172.0], "includesElement__fusion_heat": [2.89, 11.0], "includesElement__glawe_number": [12, 92], "includesElement__group_id": [1, 15], "includesElement__heat_of_formation": [159.3, 209.6], "includesElement__is_radioactive": [false], "includesElement__lattice_constant": [3.49, 4.75], "includesElement__mendeleev_number": [1, 97], "includesElement__molar_heat_capacity": [24.86, 25.52], "includesElement__period": [2, 6], "includesElement__pettifor_number": [12, 87], "includesElement__specific_heat_capacity": [3.582, 0.122], "includesElement__vdw_radius": [182.0, 207.0], "includesElement__vdw_radius_alvarez": [212.0, 254.0], "includesElement__vdw_radius_mm3": [255.0, 266.0], "includesElement__vdw_radius_uff": [245.1, 437.0], "includesElement__abundance_sea": [0.18, 2e-05], "includesElement__c6_gb": [1410.0, 513.0], "includesElement__covalent_radius_bragg": [150.0, 148.0], "includesElement__electronegativity_allen": [5.392, 11.9], "includesElement__en_allen": [5.392, 11.9], "includesElement__metallic_radius": [123.0, 151.0], "includesElement__metallic_radius_c12": [155.0, 178.0], "includesElement__thermal_conductivity": [84.8, 7.9], "includesElement__vdw_radius_batsanov": [220.0, 230.0], "includesElement__c6": [1392.0], "includesElement__vdw_radius_bondi": [181.0], "includesElement__covalent_radius_pyykko_triple": [135.0], "includesElement__atomic_weight_uncertainty": [1e-05], "includesElement__is_monoisotopic": [true], "includesElement__vdw_radius_truhlar": [207.0], "formula": ["Bi1Li3"], "spacegroup": ["225"], "thermalConductivity": [3.0313], "icsd": ["58797"], "band_gap": [0.3429], "density": [5.095584], "density_atomic": [18.72197], "deprecated": [false], "efermi": [2.905714], "energy_above_hull": [0.0], "energy_per_atom": [-2.933723], "formation_energy_per_atom": [-0.5419084], "homogeneous_poisson": [0.201], "is_gap_direct": [false], "is_magnetic": [false], "is_metal": [false], "is_stable": [true], "nelements": [2], "nsites": [4], "num_magnetic_sites": [0], "num_unique_magnetic_sites": [0], "theoretical": [false], "total_magnetization": [0.0], "total_magnetization_normalized_formula_units": [0.0], "total_magnetization_normalized_vol": [0.0], "uncorrected_energy_per_atom": [-17.04343], "universal_anisotropy": [4.04], "volume": [74.88789], "cbm": [3.2367], "e_electronic": [13.77678], "e_ionic": [13.6317], "e_total": [27.40848], "equilibrium_reaction_energy_per_atom": [-0.3427095], "n": [3.711708], "vbm": [2.8938]}