{"includesElement": ["", "N", "K"], "includesElement___series_id": [1, 3], "includesElement__abundance_crust": [19.0, 20900.0], "includesElement__atomic_number": [7, 19], "includesElement__atomic_radius": [65.0, 220.0], "includesElement__atomic_radius_rahm": [179.0, 234.0], "includesElement__atomic_volume": [17.3, 45.3], "includesElement__atomic_weight": [14.007, 39.0983], "includesElement__covalent_radius_cordero": [71.0, 203.0], "includesElement__covalent_radius_pyykko": [71.0, 196.0], "includesElement__covalent_radius_pyykko_double": [60.0, 193.0], "includesElement__covalent_radius_pyykko_triple": [54.0], "includesElement__density": [0.001145, 0.89], "includesElement__dipole_polarizability": [7.4, 289.7], "includesElement__dipole_polarizability_unc": [0.2, 0.3], "includesElement__discovery_year": [1772, 1807], "includesElement__electron_affinity": [-1.4, 0.50147], "includesElement__electronegativity_allred-rochow": [0.000773656, 5.726781e-05], "includesElement__electronegativity_cottrell-sutton": [0.2343706, 0.1059457], "includesElement__electronegativity_ghosh": [0.26493, 0.0981896], "includesElement__electronegativity_gordy": [0.05492958, 0.01122449], "includesElement__electronegativity_mulliken": [6.567065, 2.421067], "includesElement__electronegativity_nagle": [0.8774979, 0.1511299], "includesElement__electronegativity_pauling": [3.04, 0.82], "includesElement__electronegativity_sanderson": [0.577482, 0.1218383], "includesElement__en_ghosh": [0.26493, 0.0981896], "includesElement__en_pauling": [3.04, 0.82], "includesElement__glawe_number": [88, 10], "includesElement__group_id": [15, 1], "includesElement__heat_of_formation": [472.44, 89.0], "includesElement__is_radioactive": [false], "includesElement__lattice_constant": [4.039, 5.23], "includesElement__mendeleev_number": [93, 3], "includesElement__molar_heat_capacity": [29.124, 29.6], "includesElement__period": [2, 4], "includesElement__pettifor_number": [100, 10], "includesElement__specific_heat_capacity": [1.04, 0.757], "includesElement__vdw_radius": [155.0, 275.0], "includesElement__vdw_radius_alvarez": [166.0, 273.0], "includesElement__vdw_radius_mm3": [193.0, 309.0], "includesElement__vdw_radius_uff": [366.0, 381.2], "includesElement__abundance_sea": [0.5, 399.0], "includesElement__c6_gb": [25.7, 3910.0], "includesElement__covalent_radius_bragg": [65.0, 207.0], "includesElement__electronegativity_allen": [18.13, 4.34], "includesElement__en_allen": [18.13, 4.34], "includesElement__metallic_radius_c12": [53.0, 235.0], "includesElement__thermal_conductivity": [0.026, 79.0], "includesElement__vdw_radius_batsanov": [160.0, 280.0], "includesElement__c6": [24.2, 3923.0], "includesElement__vdw_radius_dreiding": [366.21], "includesElement__gas_basicity": [318.7], "includesElement__proton_affinity": [342.2], "includesElement__vdw_radius_bondi": [155.0, 275.0], "includesElement__vdw_radius_rt": [164.0], "includesElement__evaporation_heat": [2.33], "includesElement__fusion_heat": [102.5], "includesElement__atomic_weight_uncertainty": [0.0001], "includesElement__metallic_radius": [203.0], "formula": ["K2N6"], "spacegroup": ["140"], "thermalConductivity": [7.33008], "icsd": ["155168"], "band_gap": [3.9394], "density": [2.05783], "density_atomic": [16.36436], "deprecated": [false], "efermi": [-0.1878663], "energy_above_hull": [0.0], "energy_per_atom": [-8.572241], "formation_energy_per_atom": [-0.2211123], "homogeneous_poisson": [0.26], "is_gap_direct": [true], "is_magnetic": [false], "is_metal": [false], "is_stable": [true], "nelements": [2], "nsites": [8], "num_magnetic_sites": [0], "num_unique_magnetic_sites": [0], "theoretical": [false], "total_magnetization": [0.0], "total_magnetization_normalized_formula_units": [0.0], "total_magnetization_normalized_vol": [0.0], "uncorrected_energy_per_atom": [-8.572241], "universal_anisotropy": [0.681], "volume": [130.9149], "cbm": [3.664], "e_electronic": [2.473718], "e_ionic": [3.733981], "e_total": [6.207699], "equilibrium_reaction_energy_per_atom": [-0.2211123], "n": [1.572806], "vbm": [-0.2754]}