{"includesElement": ["", "S", "Pu"], "includesElement___series_id": [1, 10], "includesElement__abundance_crust": [350.0], "includesElement__atomic_number": [16, 94], "includesElement__atomic_radius": [100.0, 175.0], "includesElement__atomic_radius_rahm": [214.0, 278.0], "includesElement__atomic_volume": [15.5], "includesElement__atomic_weight": [32.06, 244.0], "includesElement__covalent_radius_cordero": [105.0, 187.0], "includesElement__covalent_radius_pyykko": [103.0, 172.0], "includesElement__covalent_radius_pyykko_double": [94.0, 135.0], "includesElement__covalent_radius_pyykko_triple": [95.0], "includesElement__density": [2.07, 19.7], "includesElement__dipole_polarizability": [19.4, 132.0], "includesElement__dipole_polarizability_unc": [0.1, 20.0], "includesElement__electron_affinity": [2.077104], "includesElement__electronegativity_allred-rochow": [0.0005137148, 9.633586e-05], "includesElement__electronegativity_cottrell-sutton": [0.2300274, 0.1287236], "includesElement__electronegativity_ghosh": [0.23596, 0.16137], "includesElement__electronegativity_gordy": [0.05291262, 0.01656977], "includesElement__electronegativity_mulliken": [6.218557, 3.0129], "includesElement__electronegativity_nagle": [0.6762644, 0.3928005], "includesElement__electronegativity_pauling": [2.58, 1.3], "includesElement__electronegativity_sanderson": [0.6397251, 0.6084717], "includesElement__en_ghosh": [0.23596, 0.16137], "includesElement__en_pauling": [2.58, 1.3], "includesElement__evaporation_heat": [10.5, 343.5], "includesElement__fusion_heat": [1.23, 2.8], "includesElement__glawe_number": [96, 38], "includesElement__group_id": [16], "includesElement__heat_of_formation": [277.17, 345.0], "includesElement__is_radioactive": [false, true], "includesElement__lattice_constant": [10.47], "includesElement__mendeleev_number": [100, 24], "includesElement__molar_heat_capacity": [22.7], "includesElement__period": [3, 7], "includesElement__pettifor_number": [94, 43], "includesElement__specific_heat_capacity": [0.708], "includesElement__vdw_radius": [180.0, 243.0], "includesElement__vdw_radius_alvarez": [189.0, 281.0], "includesElement__vdw_radius_mm3": [215.0, 252.0], "includesElement__vdw_radius_uff": [403.5, 342.4], "includesElement__abundance_sea": [905.0], "includesElement__c6_gb": [140.0], "includesElement__covalent_radius_bragg": [102.0], "includesElement__electronegativity_allen": [15.31], "includesElement__en_allen": [15.31], "includesElement__metallic_radius": [104.0], "includesElement__metallic_radius_c12": [127.0], "includesElement__thermal_conductivity": [0.27], "includesElement__vdw_radius_batsanov": [180.0], "includesElement__c6": [134.0], "includesElement__vdw_radius_dreiding": [403.0], "includesElement__gas_basicity": [640.2], "includesElement__proton_affinity": [664.3], "includesElement__vdw_radius_bondi": [180.0], "includesElement__vdw_radius_rt": [181.0], "includesElement__discovery_year": [1940], "formula": ["Pu1S1"], "spacegroup": ["225"], "thermalConductivity": [7.50128], "icsd": ["105869"], "band_gap": [0.0], "density": [10.25372], "density_atomic": [22.35369], "deprecated": [false], "efermi": [10.0464], "energy_above_hull": [0.0], "energy_per_atom": [-11.2282], "formation_energy_per_atom": [-1.790051], "is_gap_direct": [false], "is_magnetic": [true], "is_metal": [true], "is_stable": [true], "nelements": [2], "nsites": [2], "num_magnetic_sites": [1], "num_unique_magnetic_sites": [1], "theoretical": [false], "total_magnetization": [5.793437], "total_magnetization_normalized_formula_units": [5.793437], "total_magnetization_normalized_vol": [0.1295857], "uncorrected_energy_per_atom": [-49.33331], "volume": [44.70737], "equilibrium_reaction_energy_per_atom": [-0.2586874]}