{"includesElement": ["", "Na", "Si"], "includesElement___series_id": [3, 5], "includesElement__abundance_crust": [23600.0, 282000.0], "includesElement__atomic_number": [11, 14], "includesElement__atomic_radius": [180.0, 110.0], "includesElement__atomic_radius_rahm": [225.0, 232.0], "includesElement__atomic_volume": [23.7, 12.1], "includesElement__atomic_weight": [22.98977, 28.085], "includesElement__covalent_radius_cordero": [166.0, 111.0], "includesElement__covalent_radius_pyykko": [155.0, 116.0], "includesElement__covalent_radius_pyykko_double": [160.0, 107.0], "includesElement__density": [0.97, 2.3296], "includesElement__dipole_polarizability": [162.7, 37.3], "includesElement__dipole_polarizability_unc": [0.5, 0.7], "includesElement__discovery_year": [1807, 1824], "includesElement__electron_affinity": [0.547926, 1.389521], "includesElement__electronegativity_allred-rochow": [9.157128e-05, 0.0003084126], "includesElement__electronegativity_cottrell-sutton": [0.1191367, 0.1891451], "includesElement__electronegativity_ghosh": [0.093214, 0.178503], "includesElement__electronegativity_gordy": [0.01419355, 0.03577586], "includesElement__electronegativity_mulliken": [2.843501, 4.770602], "includesElement__electronegativity_nagle": [0.1831769, 0.4750986], "includesElement__electronegativity_pauling": [0.93, 1.9], "includesElement__electronegativity_sanderson": [0.09459764, 0.3468158], "includesElement__en_ghosh": [0.093214, 0.178503], "includesElement__en_pauling": [0.93, 1.9], "includesElement__evaporation_heat": [97.9, 383.0], "includesElement__fusion_heat": [2.64, 50.6], "includesElement__glawe_number": [11, 85], "includesElement__group_id": [1, 14], "includesElement__heat_of_formation": [107.5, 450.0], "includesElement__is_radioactive": [false], "includesElement__lattice_constant": [4.23, 5.43], "includesElement__mendeleev_number": [2, 88], "includesElement__molar_heat_capacity": [28.23, 19.99], "includesElement__period": [3], "includesElement__pettifor_number": [11, 85], "includesElement__specific_heat_capacity": [1.228, 0.712], "includesElement__vdw_radius": [227.0, 210.0], "includesElement__vdw_radius_alvarez": [250.0, 219.0], "includesElement__vdw_radius_mm3": [270.0, 229.0], "includesElement__vdw_radius_uff": [298.3, 429.5], "includesElement__abundance_sea": [10800.0, 2.2], "includesElement__atomic_weight_uncertainty": [2e-08], "includesElement__c6_gb": [1570.0, 308.0], "includesElement__covalent_radius_bragg": [177.0, 117.0], "includesElement__electronegativity_allen": [5.14, 11.33], "includesElement__en_allen": [5.14, 11.33], "includesElement__metallic_radius": [157.0, 117.0], "includesElement__metallic_radius_c12": [190.0, 138.0], "includesElement__thermal_conductivity": [142.0, 149.0], "includesElement__vdw_radius_batsanov": [240.0, 210.0], "includesElement__c6": [1518.0, 305.0], "includesElement__is_monoisotopic": [true], "includesElement__vdw_radius_bondi": [227.0, 210.0], "includesElement__covalent_radius_pyykko_triple": [102.0], "includesElement__vdw_radius_dreiding": [427.0], "includesElement__gas_basicity": [814.1], "includesElement__proton_affinity": [837.0], "formula": ["Na8Si46"], "spacegroup": ["223"], "thermalConductivity": [1.3525], "icsd": ["248168"], "band_gap": [0.0], "density": [2.319428], "density_atomic": [19.56667], "deprecated": [false], "efermi": [6.121016], "energy_above_hull": [0.02620994], "energy_per_atom": [-7.996316], "formation_energy_per_atom": [0.005658455], "is_gap_direct": [false], "is_magnetic": [false], "is_metal": [true], "is_stable": [false], "nelements": [2], "nsites": [54], "num_magnetic_sites": [0], "num_unique_magnetic_sites": [0], "theoretical": [false], "total_magnetization": [2.6e-05], "total_magnetization_normalized_formula_units": [1.3e-05], "total_magnetization_normalized_vol": [2.460722e-08], "uncorrected_energy_per_atom": [-7.996316], "volume": [1056.6]}