{"includesElement": ["", "Tb", "Rh"], "includesElement___series_id": [9, 8], "includesElement__abundance_crust": [1.2, 0.001], "includesElement__atomic_number": [65, 45], "includesElement__atomic_radius": [175.0, 135.0], "includesElement__atomic_radius_rahm": [276.0, 233.0], "includesElement__atomic_volume": [19.2, 8.3], "includesElement__atomic_weight": [158.9254, 102.9055], "includesElement__covalent_radius_cordero": [194.0, 142.0], "includesElement__covalent_radius_pyykko": [168.0, 125.0], "includesElement__covalent_radius_pyykko_double": [135.0, 110.0], "includesElement__density": [8.23, 12.4], "includesElement__dipole_polarizability": [170.0, 66.0], "includesElement__dipole_polarizability_unc": [20.0, 10.0], "includesElement__discovery_year": [1843, 1803], "includesElement__electron_affinity": [1.165, 1.137], "includesElement__electronegativity_allred-rochow": [0.0001009779, 0.0002176], "includesElement__electronegativity_cottrell-sutton": [0.130247, 0.1649242], "includesElement__electronegativity_ghosh": [0.198863, 0.1408379], "includesElement__electronegativity_gordy": [0.01696429, 0.0272], "includesElement__electronegativity_mulliken": [3.5144, 4.29795], "includesElement__electronegativity_nagle": [0.4014652, 0.5147142], "includesElement__electronegativity_sanderson": [0.5163695, 0.9761915], "includesElement__en_ghosh": [0.198863, 0.1408379], "includesElement__evaporation_heat": [389.0, 494.0], "includesElement__glawe_number": [25, 63], "includesElement__heat_of_formation": [388.7, 556.0], "includesElement__is_radioactive": [false], "includesElement__lattice_constant": [3.6, 3.8], "includesElement__mendeleev_number": [29, 64], "includesElement__molar_heat_capacity": [28.91, 24.98], "includesElement__period": [6, 5], "includesElement__pettifor_number": [26, 66], "includesElement__specific_heat_capacity": [0.182, 0.243], "includesElement__vdw_radius": [233.0, 210.0], "includesElement__vdw_radius_alvarez": [279.0, 244.0], "includesElement__vdw_radius_mm3": [270.0, 234.0], "includesElement__vdw_radius_uff": [345.1, 292.9], "includesElement__abundance_sea": [1.4e-07], "includesElement__atomic_weight_uncertainty": [2e-05], "includesElement__c6_gb": [2590.0, 708.0], "includesElement__thermal_conductivity": [11.1, 150.0], "includesElement__is_monoisotopic": [true], "includesElement__covalent_radius_pyykko_triple": [106.0], "includesElement__electronegativity_pauling": [2.28], "includesElement__en_pauling": [2.28], "includesElement__fusion_heat": [21.8], "includesElement__group_id": [9], "includesElement__electronegativity_allen": [9.259], "includesElement__en_allen": [9.259], "includesElement__metallic_radius": [125.0], "includesElement__metallic_radius_c12": [134.0], "includesElement__vdw_radius_batsanov": [200.0], "includesElement__gas_basicity": [745.4], "includesElement__proton_affinity": [768.0], "formula": ["Rh1Tb1"], "spacegroup": ["221"], "thermalConductivity": [6.20747], "icsd": ["105942"], "band_gap": [0.0], "density": [10.86795], "density_atomic": [20.00286], "deprecated": [false], "efermi": [4.722398], "energy_above_hull": [0.0], "energy_per_atom": [-6.851929], "formation_energy_per_atom": [-0.8508433], "homogeneous_poisson": [0.346], "is_gap_direct": [false], "is_magnetic": [false], "is_metal": [true], "is_stable": [true], "nelements": [2], "nsites": [2], "num_magnetic_sites": [0], "num_unique_magnetic_sites": [0], "theoretical": [false], "total_magnetization": [1.57e-05], "total_magnetization_normalized_formula_units": [1.57e-05], "total_magnetization_normalized_vol": [3.924438e-07], "uncorrected_energy_per_atom": [-28.60134], "universal_anisotropy": [0.047], "volume": [40.00573], "equilibrium_reaction_energy_per_atom": [-0.1101716]}