{"includesElement": ["", "Ca", "Ge"], "includesElement___series_id": [4, 5], "includesElement__abundance_crust": [41500.0, 1.5], "includesElement__atomic_number": [20, 32], "includesElement__atomic_radius": [180.0, 125.0], "includesElement__atomic_radius_rahm": [270.0, 234.0], "includesElement__atomic_volume": [29.9, 13.6], "includesElement__atomic_weight": [40.078, 72.63], "includesElement__covalent_radius_cordero": [176.0, 120.0], "includesElement__covalent_radius_pyykko": [171.0, 121.0], "includesElement__covalent_radius_pyykko_double": [147.0, 111.0], "includesElement__covalent_radius_pyykko_triple": [133.0, 114.0], "includesElement__density": [1.54, 5.3234], "includesElement__dipole_polarizability": [160.8, 40.0], "includesElement__dipole_polarizability_unc": [4.0, 1.0], "includesElement__discovery_year": [1808, 1886], "includesElement__electron_affinity": [0.02455, 1.232712], "includesElement__electronegativity_allred-rochow": [9.746589e-05, 0.0003859026], "includesElement__electronegativity_cottrell-sutton": [0.1290994, 0.2160884], "includesElement__electronegativity_ghosh": [0.1154119, 0.1895892], "includesElement__electronegativity_gordy": [0.01666667, 0.04669421], "includesElement__electronegativity_mulliken": [3.068853, 4.566073], "includesElement__electronegativity_nagle": [0.2316939, 0.4641589], "includesElement__electronegativity_pauling": [1.0, 2.01], "includesElement__electronegativity_sanderson": [0.1901577, 0.8001471], "includesElement__en_ghosh": [0.1154119, 0.1895892], "includesElement__en_pauling": [1.0, 2.01], "includesElement__evaporation_heat": [153.6, 328.0], "includesElement__fusion_heat": [9.2, 36.8], "includesElement__glawe_number": [16, 84], "includesElement__group_id": [2, 14], "includesElement__heat_of_formation": [177.8, 372.0], "includesElement__is_radioactive": [false], "includesElement__lattice_constant": [5.58, 5.66], "includesElement__mendeleev_number": [7, 89], "includesElement__molar_heat_capacity": [25.929, 23.222], "includesElement__period": [4], "includesElement__pettifor_number": [16, 84], "includesElement__specific_heat_capacity": [0.647, 0.32], "includesElement__vdw_radius": [231.0, 211.0], "includesElement__vdw_radius_alvarez": [262.0, 229.0], "includesElement__vdw_radius_mm3": [281.0, 244.0], "includesElement__vdw_radius_uff": [339.9, 428.0], "includesElement__abundance_sea": [412.0, 5e-05], "includesElement__atomic_weight_uncertainty": [0.004, 0.008], "includesElement__c6_gb": [2230.0, 365.0], "includesElement__covalent_radius_bragg": [170.0], "includesElement__electronegativity_allen": [6.113, 11.8], "includesElement__en_allen": [6.113, 11.8], "includesElement__metallic_radius": [174.0, 124.0], "includesElement__metallic_radius_c12": [197.0, 144.0], "includesElement__vdw_radius_batsanov": [240.0, 210.0], "includesElement__c6": [2163.0, 354.0], "includesElement__vdw_radius_truhlar": [231.0, 211.0], "includesElement__thermal_conductivity": [60.2], "includesElement__vdw_radius_dreiding": [427.0], "formula": ["Ca7Ge1"], "spacegroup": ["225"], "thermalConductivity": [1.29657], "icsd": ["43321"], "band_gap": [0.0], "density": [2.012547], "density_atomic": [36.42643], "deprecated": [false], "efermi": [2.392793], "energy_above_hull": [0.2235345], "energy_per_atom": [-7.937075], "formation_energy_per_atom": [-0.04457066], "homogeneous_poisson": [0.25], "is_gap_direct": [false], "is_magnetic": [false], "is_metal": [true], "is_stable": [false], "nelements": [2], "nsites": [8], "num_magnetic_sites": [0], "num_unique_magnetic_sites": [0], "theoretical": [false], "total_magnetization": [0.0666447], "total_magnetization_normalized_formula_units": [0.0666447], "total_magnetization_normalized_vol": [0.0002286963], "uncorrected_energy_per_atom": [-2.339471], "universal_anisotropy": [-337776.3], "volume": [291.4114]}