{"includesElement": ["", "O", "Re"], "includesElement___series_id": [1, 8], "includesElement__abundance_crust": [461000.0, 0.0007], "includesElement__atomic_number": [8, 75], "includesElement__atomic_radius": [60.0, 135.0], "includesElement__atomic_radius_rahm": [171.0, 249.0], "includesElement__atomic_volume": [14.0, 8.85], "includesElement__atomic_weight": [15.999, 186.207], "includesElement__covalent_radius_cordero": [66.0, 151.0], "includesElement__covalent_radius_pyykko": [63.0, 131.0], "includesElement__covalent_radius_pyykko_double": [57.0, 119.0], "includesElement__covalent_radius_pyykko_triple": [53.0, 110.0], "includesElement__density": [0.001308, 20.8], "includesElement__dipole_polarizability": [5.3, 62.0], "includesElement__dipole_polarizability_unc": [0.2, 3.0], "includesElement__discovery_year": [1774, 1925], "includesElement__electron_affinity": [1.461113, 0.15], "includesElement__electronegativity_allred-rochow": [0.001146384, 0.000209778], "includesElement__electronegativity_cottrell-sutton": [0.2687419, 0.1657737], "includesElement__electronegativity_ghosh": [0.304575, 0.2435164], "includesElement__electronegativity_gordy": [0.07222222, 0.02748092], "includesElement__electronegativity_mulliken": [7.539584, 3.99176], "includesElement__electronegativity_nagle": [1.042218, 0.4833208], "includesElement__electronegativity_pauling": [3.44, 1.9], "includesElement__electronegativity_sanderson": [0.9416494, 1.174592], "includesElement__en_ghosh": [0.304575, 0.2435164], "includesElement__en_pauling": [3.44, 1.9], "includesElement__glawe_number": [97, 58], "includesElement__group_id": [16, 7], "includesElement__heat_of_formation": [249.229, 774.0], "includesElement__is_radioactive": [false], "includesElement__lattice_constant": [6.83, 2.76], "includesElement__mendeleev_number": [99, 57], "includesElement__molar_heat_capacity": [29.378, 25.48], "includesElement__period": [2, 6], "includesElement__pettifor_number": [101, 59], "includesElement__specific_heat_capacity": [0.918, 0.137], "includesElement__vdw_radius": [152.0, 216.0], "includesElement__vdw_radius_alvarez": [150.0, 249.0], "includesElement__vdw_radius_mm3": [182.0, 237.0], "includesElement__vdw_radius_uff": [350.0, 295.4], "includesElement__abundance_sea": [857000.0, 4e-06], "includesElement__c6_gb": [16.7, 663.0], "includesElement__covalent_radius_bragg": [65.0], "includesElement__electronegativity_allen": [21.36, 9.46], "includesElement__en_allen": [21.36, 9.46], "includesElement__thermal_conductivity": [0.027, 48.0], "includesElement__vdw_radius_batsanov": [155.0, 205.0], "includesElement__c6": [15.6], "includesElement__vdw_radius_dreiding": [340.46], "includesElement__gas_basicity": [459.6], "includesElement__proton_affinity": [485.2], "includesElement__vdw_radius_bondi": [152.0], "includesElement__vdw_radius_rt": [158.0], "includesElement__evaporation_heat": [704.0], "includesElement__fusion_heat": [34.0], "includesElement__atomic_weight_uncertainty": [0.001], "includesElement__metallic_radius": [128.0], "includesElement__metallic_radius_c12": [137.0], "formula": ["O6Re2"], "spacegroup": ["182"], "thermalConductivity": [19.32], "icsd": ["202338"], "band_gap": [0.0], "density": [8.48264], "density_atomic": [11.46185], "deprecated": [false], "efermi": [3.08438], "energy_above_hull": [0.1068263], "energy_per_atom": [-8.850662], "formation_energy_per_atom": [-2.024436], "homogeneous_poisson": [0.215], "is_gap_direct": [false], "is_magnetic": [false], "is_metal": [true], "is_stable": [false], "nelements": [2], "nsites": [8], "num_magnetic_sites": [0], "num_unique_magnetic_sites": [0], "theoretical": [false], "total_magnetization": [6e-07], "total_magnetization_normalized_formula_units": [3e-07], "total_magnetization_normalized_vol": [6.543448e-09], "uncorrected_energy_per_atom": [-19.18482], "universal_anisotropy": [1.105], "volume": [91.69478]}