{"includesElement": ["", "Mg", "Te"], "includesElement___series_id": [4, 5], "includesElement__abundance_crust": [23300.0, 0.001], "includesElement__atomic_number": [12, 52], "includesElement__atomic_radius": [150.0, 140.0], "includesElement__atomic_radius_rahm": [240.0, 242.0], "includesElement__atomic_volume": [14.0, 20.5], "includesElement__atomic_weight": [24.305, 127.6], "includesElement__covalent_radius_cordero": [141.0, 138.0], "includesElement__covalent_radius_pyykko": [139.0, 136.0], "includesElement__covalent_radius_pyykko_double": [132.0, 128.0], "includesElement__covalent_radius_pyykko_triple": [127.0, 121.0], "includesElement__density": [1.74, 6.232], "includesElement__dipole_polarizability": [71.2, 38.0], "includesElement__dipole_polarizability_unc": [0.4, 4.0], "includesElement__discovery_year": [1808, 1782], "includesElement__electronegativity_allred-rochow": [0.0001475079, 0.0003757569], "includesElement__electronegativity_cottrell-sutton": [0.1431908, 0.2260596], "includesElement__electronegativity_ghosh": [0.121644, 0.2056992], "includesElement__electronegativity_gordy": [0.0205036, 0.05110294], "includesElement__electronegativity_mulliken": [3.823117, 5.490268], "includesElement__electronegativity_nagle": [0.3039835, 0.5404919], "includesElement__electronegativity_pauling": [1.31, 2.1], "includesElement__electronegativity_sanderson": [0.1524211, 0.8622506], "includesElement__en_ghosh": [0.121644, 0.2056992], "includesElement__en_pauling": [1.31, 2.1], "includesElement__evaporation_heat": [131.8, 49.8], "includesElement__fusion_heat": [9.2, 17.91], "includesElement__glawe_number": [73, 94], "includesElement__group_id": [2, 16], "includesElement__heat_of_formation": [147.1, 196.6], "includesElement__is_radioactive": [false], "includesElement__lattice_constant": [3.21, 4.45], "includesElement__mendeleev_number": [76, 102], "includesElement__molar_heat_capacity": [24.869, 25.73], "includesElement__period": [3, 5], "includesElement__pettifor_number": [73, 92], "includesElement__specific_heat_capacity": [1.023, 0.202], "includesElement__vdw_radius": [173.0, 206.0], "includesElement__vdw_radius_alvarez": [251.0, 199.0], "includesElement__vdw_radius_mm3": [243.0, 244.0], "includesElement__vdw_radius_uff": [302.1, 447.0], "includesElement__abundance_sea": [1290.0], "includesElement__c6_gb": [629.0, 471.0], "includesElement__covalent_radius_bragg": [142.0, 133.0], "includesElement__electronegativity_allen": [7.646, 12.76], "includesElement__en_allen": [7.646, 12.76], "includesElement__metallic_radius": [136.0, 137.0], "includesElement__metallic_radius_c12": [160.0], "includesElement__thermal_conductivity": [156.0, 14.3], "includesElement__vdw_radius_batsanov": [220.0, 210.0], "includesElement__c6": [626.0, 445.0], "includesElement__gas_basicity": [797.3], "includesElement__proton_affinity": [819.6], "includesElement__vdw_radius_bondi": [173.0, 206.0], "includesElement__electron_affinity": [1.970876], "includesElement__atomic_weight_uncertainty": [0.03], "includesElement__vdw_radius_dreiding": [423.0], "formula": ["Mg2Te2", "MgTe"], "mp_id": ["mp-1039"], "spacegroup": ["186"], "thermalConductivity": [1.64274, 8.113917, 8.377612], "icsd": ["168348"], "band_gap": [2.3612], "density": [3.717167], "density_atomic": [33.92963], "deprecated": [false], "efermi": [2.095906], "energy_above_hull": [2.36025e-05], "energy_per_atom": [-3.458434], "formation_energy_per_atom": [-1.071546], "homogeneous_poisson": [0.332], "is_gap_direct": [true], "is_magnetic": [false], "is_metal": [false], "is_stable": [false], "nelements": [2], "nsites": [4], "num_magnetic_sites": [0], "num_unique_magnetic_sites": [0], "theoretical": [false], "total_magnetization": [0.0], "total_magnetization_normalized_formula_units": [0.0], "total_magnetization_normalized_vol": [0.0], "uncorrected_energy_per_atom": [-15.84736], "universal_anisotropy": [0.145], "volume": [135.7185], "cbm": [4.358], "e_electronic": [5.490666], "e_ionic": [2.510228], "e_total": [8.000893], "n": [2.343217], "vbm": [1.9968], "e_ij_max": [0.2703795]}