{"includesElement": ["", "Be", "Rh"], "includesElement___series_id": [4, 8], "includesElement__abundance_crust": [2.8, 0.001], "includesElement__atomic_number": [4, 45], "includesElement__atomic_radius": [105.0, 135.0], "includesElement__atomic_radius_rahm": [219.0, 233.0], "includesElement__atomic_volume": [5.0, 8.3], "includesElement__atomic_weight": [9.012183, 102.9055], "includesElement__covalent_radius_cordero": [96.0, 142.0], "includesElement__covalent_radius_pyykko": [102.0, 125.0], "includesElement__covalent_radius_pyykko_double": [90.0, 110.0], "includesElement__covalent_radius_pyykko_triple": [85.0, 106.0], "includesElement__density": [1.85, 12.4], "includesElement__dipole_polarizability": [37.74, 66.0], "includesElement__dipole_polarizability_unc": [0.03, 10.0], "includesElement__discovery_year": [1798, 1803], "includesElement__electron_affinity": [-2.4, 1.137], "includesElement__electronegativity_allred-rochow": [0.0001874279, 0.0002176], "includesElement__electronegativity_cottrell-sutton": [0.1382666, 0.1649242], "includesElement__electronegativity_ghosh": [0.144986, 0.1408379], "includesElement__electronegativity_gordy": [0.01911765, 0.0272], "includesElement__electronegativity_mulliken": [3.461349, 4.29795], "includesElement__electronegativity_nagle": [0.3756148, 0.5147142], "includesElement__electronegativity_pauling": [1.57, 2.28], "includesElement__electronegativity_sanderson": [0.1268473, 0.9761915], "includesElement__en_ghosh": [0.144986, 0.1408379], "includesElement__en_pauling": [1.57, 2.28], "includesElement__evaporation_heat": [309.0, 494.0], "includesElement__fusion_heat": [12.21, 21.8], "includesElement__glawe_number": [77, 63], "includesElement__group_id": [2, 9], "includesElement__heat_of_formation": [324.0, 556.0], "includesElement__is_radioactive": [false], "includesElement__lattice_constant": [2.29, 3.8], "includesElement__mendeleev_number": [75, 64], "includesElement__molar_heat_capacity": [16.443, 24.98], "includesElement__period": [2, 5], "includesElement__pettifor_number": [77, 66], "includesElement__specific_heat_capacity": [1.825, 0.243], "includesElement__vdw_radius": [153.0, 210.0], "includesElement__vdw_radius_alvarez": [198.0, 244.0], "includesElement__vdw_radius_mm3": [223.0, 234.0], "includesElement__vdw_radius_uff": [274.5, 292.9], "includesElement__abundance_sea": [5.6e-06], "includesElement__atomic_weight_uncertainty": [5e-07, 2e-05], "includesElement__c6_gb": [214.0, 708.0], "includesElement__covalent_radius_bragg": [115.0], "includesElement__electronegativity_allen": [9.323, 9.259], "includesElement__en_allen": [9.323, 9.259], "includesElement__metallic_radius": [89.0, 125.0], "includesElement__metallic_radius_c12": [112.0, 134.0], "includesElement__thermal_conductivity": [201.0, 150.0], "includesElement__vdw_radius_batsanov": [190.0, 200.0], "includesElement__c6": [227.0], "includesElement__is_monoisotopic": [true], "includesElement__vdw_radius_truhlar": [153.0], "includesElement__gas_basicity": [745.4], "includesElement__proton_affinity": [768.0], "formula": ["Be1Rh1"], "spacegroup": ["221"], "thermalConductivity": [20.5245], "icsd": ["58734"], "band_gap": [0.0], "density": [8.763995], "density_atomic": [10.60268], "deprecated": [false], "efermi": [6.735023], "energy_above_hull": [0.0], "energy_per_atom": [-6.159676], "formation_energy_per_atom": [-0.6078159], "homogeneous_poisson": [0.294], "is_gap_direct": [false], "is_magnetic": [false], "is_metal": [true], "is_stable": [true], "nelements": [2], "nsites": [2], "num_magnetic_sites": [0], "num_unique_magnetic_sites": [0], "theoretical": [false], "total_magnetization": [4.63e-05], "total_magnetization_normalized_formula_units": [4.63e-05], "total_magnetization_normalized_vol": [2.18341e-06], "uncorrected_energy_per_atom": [-14.86671], "universal_anisotropy": [0.14], "volume": [21.20536], "equilibrium_reaction_energy_per_atom": [-0.3130571]}