{"includesElement": ["", "Pd", "Pb"], "includesElement___series_id": [8, 7], "includesElement__abundance_crust": [0.015, 14.0], "includesElement__atomic_number": [46, 82], "includesElement__atomic_radius": [140.0, 180.0], "includesElement__atomic_radius_rahm": [215.0, 249.0], "includesElement__atomic_volume": [8.9, 18.3], "includesElement__atomic_weight": [106.42, 207.2], "includesElement__covalent_radius_cordero": [139.0, 146.0], "includesElement__covalent_radius_pyykko": [120.0, 144.0], "includesElement__covalent_radius_pyykko_double": [117.0, 135.0], "includesElement__covalent_radius_pyykko_triple": [112.0, 137.0], "includesElement__density": [12.0, 11.3], "includesElement__dipole_polarizability": [26.14, 47.0], "includesElement__dipole_polarizability_unc": [0.1, 3.0], "includesElement__discovery_year": [1803], "includesElement__electron_affinity": [0.562, 0.3567432], "includesElement__electronegativity_allred-rochow": [0.0004756944, 0.000272473], "includesElement__electronegativity_cottrell-sutton": [0.2389212, 0.1980811], "includesElement__electronegativity_ghosh": [0.1440276, 0.177911], "includesElement__electronegativity_gordy": [0.05708333, 0.03923611], "includesElement__electronegativity_mulliken": [4.44943, 3.886711], "includesElement__electronegativity_nagle": [0.7259357, 0.4398663], "includesElement__electronegativity_pauling": [2.2, 1.8], "includesElement__electronegativity_sanderson": [1.124263, 0.9313226], "includesElement__en_ghosh": [0.1440276, 0.177911], "includesElement__en_pauling": [2.2, 1.8], "includesElement__evaporation_heat": [372.4, 177.8], "includesElement__fusion_heat": [17.24, 4.77], "includesElement__glawe_number": [65, 82], "includesElement__group_id": [10, 14], "includesElement__heat_of_formation": [376.6, 195.2], "includesElement__is_radioactive": [false], "includesElement__lattice_constant": [3.89, 4.95], "includesElement__mendeleev_number": [68, 91], "includesElement__molar_heat_capacity": [25.98, 26.84], "includesElement__period": [5, 6], "includesElement__pettifor_number": [69, 82], "includesElement__specific_heat_capacity": [0.246, 0.13], "includesElement__vdw_radius": [210.0, 202.0], "includesElement__vdw_radius_alvarez": [215.0, 260.0], "includesElement__vdw_radius_mm3": [237.0, 274.0], "includesElement__vdw_radius_uff": [289.9, 429.7], "includesElement__atomic_weight_uncertainty": [0.01, 0.1], "includesElement__c6_gb": [628.0, 534.0], "includesElement__electronegativity_allen": [9.402, 10.97], "includesElement__en_allen": [9.402, 10.97], "includesElement__metallic_radius": [128.0, 150.0], "includesElement__metallic_radius_c12": [137.0, 170.0], "includesElement__thermal_conductivity": [71.8, 35.3], "includesElement__vdw_radius_batsanov": [205.0, 230.0], "includesElement__gas_basicity": [673.4], "includesElement__proton_affinity": [696.0], "includesElement__abundance_sea": [3e-05], "includesElement__vdw_radius_bondi": [202.0], "formula": ["Pb1Pd3"], "spacegroup": ["221"], "thermalConductivity": [2.33679], "icsd": ["42600"], "band_gap": [0.0], "density": [12.87866], "density_atomic": [16.97008], "deprecated": [false], "efermi": [6.234927], "energy_above_hull": [0.0], "energy_per_atom": [-31.59473], "formation_energy_per_atom": [-0.3031103], "homogeneous_poisson": [0.352], "is_gap_direct": [false], "is_magnetic": [false], "is_metal": [true], "is_stable": [true], "nelements": [2], "nsites": [4], "num_magnetic_sites": [0], "num_unique_magnetic_sites": [0], "theoretical": [false], "total_magnetization": [5e-07], "total_magnetization_normalized_formula_units": [5e-07], "total_magnetization_normalized_vol": [7.365906e-09], "uncorrected_energy_per_atom": [-31.59473], "universal_anisotropy": [0.455], "volume": [67.88031], "equilibrium_reaction_energy_per_atom": [-0.1695778]}