{"includesElement": ["", "O", "Ho"], "includesElement___series_id": [1, 9], "includesElement__abundance_crust": [461000.0, 1.3], "includesElement__atomic_number": [8, 67], "includesElement__atomic_radius": [60.0, 175.0], "includesElement__atomic_radius_rahm": [171.0, 273.0], "includesElement__atomic_volume": [14.0, 18.7], "includesElement__atomic_weight": [15.999, 164.9303], "includesElement__covalent_radius_cordero": [66.0, 192.0], "includesElement__covalent_radius_pyykko": [63.0, 166.0], "includesElement__covalent_radius_pyykko_double": [57.0, 133.0], "includesElement__covalent_radius_pyykko_triple": [53.0], "includesElement__density": [0.001308, 8.8], "includesElement__dipole_polarizability": [5.3, 156.0], "includesElement__dipole_polarizability_unc": [0.2, 10.0], "includesElement__discovery_year": [1774, 1878], "includesElement__electron_affinity": [1.461113], "includesElement__electronegativity_allred-rochow": [0.001146384, 0.0001034258], "includesElement__electronegativity_cottrell-sutton": [0.2687419, 0.1310293], "includesElement__electronegativity_ghosh": [0.304575, 0.207795], "includesElement__electronegativity_gordy": [0.07222222, 0.01716867], "includesElement__electronegativity_mulliken": [7.539584, 3.01075], "includesElement__electronegativity_nagle": [1.042218, 0.4367902], "includesElement__electronegativity_pauling": [3.44, 1.23], "includesElement__electronegativity_sanderson": [0.9416494, 0.5434919], "includesElement__en_ghosh": [0.304575, 0.207795], "includesElement__en_pauling": [3.44, 1.23], "includesElement__glawe_number": [97, 23], "includesElement__group_id": [16], "includesElement__heat_of_formation": [249.229, 300.6], "includesElement__is_radioactive": [false], "includesElement__lattice_constant": [6.83, 3.58], "includesElement__mendeleev_number": [99, 33], "includesElement__molar_heat_capacity": [29.378, 27.15], "includesElement__period": [2, 6], "includesElement__pettifor_number": [101, 24], "includesElement__specific_heat_capacity": [0.918, 0.165], "includesElement__vdw_radius": [152.0, 230.0], "includesElement__vdw_radius_alvarez": [150.0, 281.0], "includesElement__vdw_radius_mm3": [182.0, 267.0], "includesElement__vdw_radius_uff": [350.0, 340.9], "includesElement__abundance_sea": [857000.0, 2.2e-07], "includesElement__c6_gb": [16.7, 2280.0], "includesElement__covalent_radius_bragg": [65.0], "includesElement__electronegativity_allen": [21.36], "includesElement__en_allen": [21.36], "includesElement__thermal_conductivity": [0.027], "includesElement__vdw_radius_batsanov": [155.0], "includesElement__c6": [15.6], "includesElement__vdw_radius_dreiding": [340.46], "includesElement__gas_basicity": [459.6], "includesElement__proton_affinity": [485.2], "includesElement__vdw_radius_bondi": [152.0], "includesElement__vdw_radius_rt": [158.0], "includesElement__evaporation_heat": [301.0], "includesElement__atomic_weight_uncertainty": [2e-05], "includesElement__is_monoisotopic": [true], "formula": ["Ho16O24"], "spacegroup": ["206"], "thermalConductivity": [2.16045, 2.1579], "icsd": ["27773", "41268"], "band_gap": [3.9458], "density": [8.612954], "density_atomic": [14.5699], "deprecated": [false], "efermi": [1.305228], "energy_above_hull": [0.0], "energy_per_atom": [-20.68953], "formation_energy_per_atom": [-3.960605], "is_gap_direct": [false], "is_magnetic": [false], "is_metal": [false], "is_stable": [true], "nelements": [2], "nsites": [40], "num_magnetic_sites": [0], "num_unique_magnetic_sites": [0], "theoretical": [false], "total_magnetization": [0.0], "total_magnetization_normalized_formula_units": [0.0], "total_magnetization_normalized_vol": [0.0], "uncorrected_energy_per_atom": [-20.68953], "volume": [582.796], "cbm": [5.1663], "equilibrium_reaction_energy_per_atom": [-3.960605], "vbm": [1.2205]}