{"includesElement": ["", "O", "Ti"], "includesElement___series_id": [1, 8], "includesElement__abundance_crust": [461000.0, 5650.0], "includesElement__atomic_number": [8, 22], "includesElement__atomic_radius": [60.0, 140.0], "includesElement__atomic_radius_rahm": [171.0, 257.0], "includesElement__atomic_volume": [14.0, 10.6], "includesElement__atomic_weight": [15.999, 47.867], "includesElement__covalent_radius_cordero": [66.0, 160.0], "includesElement__covalent_radius_pyykko": [63.0, 136.0], "includesElement__covalent_radius_pyykko_double": [57.0, 117.0], "includesElement__covalent_radius_pyykko_triple": [53.0, 108.0], "includesElement__density": [0.001308, 4.506], "includesElement__dipole_polarizability": [5.3, 100.0], "includesElement__dipole_polarizability_unc": [0.2, 10.0], "includesElement__discovery_year": [1774, 1791], "includesElement__electron_affinity": [1.461113, 0.079], "includesElement__electronegativity_allred-rochow": [0.001146384, 0.0001703071], "includesElement__electronegativity_cottrell-sutton": [0.2687419, 0.1521899], "includesElement__electronegativity_ghosh": [0.304575, 0.1233637], "includesElement__electronegativity_gordy": [0.07222222, 0.02316176], "includesElement__electronegativity_mulliken": [7.539584, 3.45356], "includesElement__electronegativity_nagle": [1.042218, 0.3419952], "includesElement__electronegativity_pauling": [3.44, 1.54], "includesElement__electronegativity_sanderson": [0.9416494, 0.4055462], "includesElement__en_ghosh": [0.304575, 0.1233637], "includesElement__en_pauling": [3.44, 1.54], "includesElement__glawe_number": [97, 51], "includesElement__group_id": [16, 4], "includesElement__heat_of_formation": [249.229, 473.0], "includesElement__is_radioactive": [false], "includesElement__lattice_constant": [6.83, 2.95], "includesElement__mendeleev_number": [99, 43], "includesElement__molar_heat_capacity": [29.378, 25.06], "includesElement__period": [2, 4], "includesElement__pettifor_number": [101, 51], "includesElement__specific_heat_capacity": [0.918, 0.523], "includesElement__vdw_radius": [152.0, 211.0], "includesElement__vdw_radius_alvarez": [150.0, 246.0], "includesElement__vdw_radius_mm3": [182.0, 239.0], "includesElement__vdw_radius_uff": [350.0, 317.5], "includesElement__abundance_sea": [857000.0, 0.001], "includesElement__c6_gb": [16.7, 1200.0], "includesElement__covalent_radius_bragg": [65.0, 140.0], "includesElement__electronegativity_allen": [21.36, 8.17], "includesElement__en_allen": [21.36, 8.17], "includesElement__thermal_conductivity": [0.027, 21.9], "includesElement__vdw_radius_batsanov": [155.0, 215.0], "includesElement__c6": [15.6, 1044.0], "includesElement__vdw_radius_dreiding": [340.46], "includesElement__gas_basicity": [459.6, 853.7], "includesElement__proton_affinity": [485.2, 876.0], "includesElement__vdw_radius_bondi": [152.0], "includesElement__vdw_radius_rt": [158.0], "includesElement__evaporation_heat": [422.6], "includesElement__fusion_heat": [18.8], "includesElement__atomic_weight_uncertainty": [0.001], "includesElement__metallic_radius": [132.0], "includesElement__metallic_radius_c12": [147.0], "formula": ["O4Ti2"], "spacegroup": ["136"], "thermalConductivity": [22.7614], "icsd": ["109469"], "band_gap": [1.781], "density": [4.236222], "density_atomic": [10.43542], "deprecated": [false], "efermi": [3.296451], "energy_above_hull": [0.009526375], "energy_per_atom": [-11.59885], "formation_energy_per_atom": [-3.312493], "homogeneous_poisson": [0.28], "is_gap_direct": [true], "is_magnetic": [false], "is_metal": [false], "is_stable": [false], "nelements": [2], "nsites": [12], "num_magnetic_sites": [0], "num_unique_magnetic_sites": [0], "theoretical": [false], "total_magnetization": [0.0], "total_magnetization_normalized_formula_units": [0.0], "total_magnetization_normalized_vol": [0.0], "uncorrected_energy_per_atom": [-11.59885], "universal_anisotropy": [1.629], "volume": [125.2251], "cbm": [4.9826], "e_electronic": [8.099138], "e_ionic": [1.365261], "e_total": [9.464399], "n": [2.845898], "vbm": [3.2016]}