{"includesElement": ["", "S", "Hf"], "includesElement___series_id": [1, 8], "includesElement__abundance_crust": [350.0, 3.0], "includesElement__atomic_number": [16, 72], "includesElement__atomic_radius": [100.0, 155.0], "includesElement__atomic_radius_rahm": [214.0, 264.0], "includesElement__atomic_volume": [15.5, 13.6], "includesElement__atomic_weight": [32.06, 178.49], "includesElement__covalent_radius_cordero": [105.0, 175.0], "includesElement__covalent_radius_pyykko": [103.0, 152.0], "includesElement__covalent_radius_pyykko_double": [94.0, 128.0], "includesElement__covalent_radius_pyykko_triple": [95.0, 122.0], "includesElement__density": [2.07, 13.3], "includesElement__dipole_polarizability": [19.4, 103.0], "includesElement__dipole_polarizability_unc": [0.1, 6.0], "includesElement__electron_affinity": [2.077104, 0.014], "includesElement__electronegativity_allred-rochow": [0.0005137148, 0.00013634], "includesElement__electronegativity_cottrell-sutton": [0.2300274, 0.1439572], "includesElement__electronegativity_ghosh": [0.23596, 0.229987], "includesElement__electronegativity_gordy": [0.05291262, 0.02072368], "includesElement__electronegativity_mulliken": [6.218557, 3.419535], "includesElement__electronegativity_nagle": [0.6762644, 0.3386421], "includesElement__electronegativity_pauling": [2.58, 1.3], "includesElement__electronegativity_sanderson": [0.6397251, 0.7352125], "includesElement__en_ghosh": [0.23596, 0.229987], "includesElement__en_pauling": [2.58, 1.3], "includesElement__evaporation_heat": [10.5, 575.0], "includesElement__fusion_heat": [1.23, 25.1], "includesElement__glawe_number": [96, 50], "includesElement__group_id": [16, 4], "includesElement__heat_of_formation": [277.17, 618.4], "includesElement__is_radioactive": [false], "includesElement__lattice_constant": [10.47, 3.2], "includesElement__mendeleev_number": [100, 45], "includesElement__molar_heat_capacity": [22.7, 25.73], "includesElement__period": [3, 6], "includesElement__pettifor_number": [94, 50], "includesElement__specific_heat_capacity": [0.708, 0.144], "includesElement__vdw_radius": [180.0, 223.0], "includesElement__vdw_radius_alvarez": [189.0, 263.0], "includesElement__vdw_radius_mm3": [215.0, 253.0], "includesElement__vdw_radius_uff": [403.5, 314.1], "includesElement__abundance_sea": [905.0, 7e-06], "includesElement__c6_gb": [140.0, 1040.0], "includesElement__covalent_radius_bragg": [102.0], "includesElement__electronegativity_allen": [15.31, 6.83], "includesElement__en_allen": [15.31, 6.83], "includesElement__metallic_radius": [104.0, 144.0], "includesElement__metallic_radius_c12": [127.0, 159.0], "includesElement__thermal_conductivity": [0.27, 23.0], "includesElement__vdw_radius_batsanov": [180.0, 225.0], "includesElement__c6": [134.0], "includesElement__vdw_radius_dreiding": [403.0], "includesElement__gas_basicity": [640.2], "includesElement__proton_affinity": [664.3], "includesElement__vdw_radius_bondi": [180.0], "includesElement__vdw_radius_rt": [181.0], "includesElement__discovery_year": [1923], "includesElement__atomic_weight_uncertainty": [0.02], "formula": ["Hf4S2"], "spacegroup": ["194"], "thermalConductivity": [9.52257], "icsd": ["43203"], "band_gap": [0.0], "density": [11.18294], "density_atomic": [19.25624], "deprecated": [false], "efermi": [6.512726], "energy_above_hull": [0.0], "energy_per_atom": [-33.95036], "formation_energy_per_atom": [-1.171079], "homogeneous_poisson": [0.257], "is_gap_direct": [false], "is_magnetic": [false], "is_metal": [true], "is_stable": [true], "nelements": [2], "nsites": [6], "num_magnetic_sites": [0], "num_unique_magnetic_sites": [0], "theoretical": [false], "total_magnetization": [1.2e-06], "total_magnetization_normalized_formula_units": [6e-07], "total_magnetization_normalized_vol": [1.038624e-08], "uncorrected_energy_per_atom": [-33.95036], "universal_anisotropy": [0.268], "volume": [115.5375], "equilibrium_reaction_energy_per_atom": [-0.04383567]}