{"includesElement": ["", "P", "In"], "includesElement___series_id": [1, 7], "includesElement__abundance_crust": [1050.0, 0.25], "includesElement__atomic_number": [15, 49], "includesElement__atomic_radius": [100.0, 155.0], "includesElement__atomic_radius_rahm": [223.0, 246.0], "includesElement__atomic_volume": [17.0, 15.7], "includesElement__atomic_weight": [30.97376, 114.818], "includesElement__covalent_radius_cordero": [107.0, 142.0], "includesElement__covalent_radius_pyykko": [111.0, 142.0], "includesElement__covalent_radius_pyykko_double": [102.0, 136.0], "includesElement__covalent_radius_pyykko_triple": [94.0, 146.0], "includesElement__density": [1.823, 7.31], "includesElement__dipole_polarizability": [25.0, 65.0], "includesElement__dipole_polarizability_unc": [1.0, 4.0], "includesElement__discovery_year": [1669, 1863], "includesElement__electron_affinity": [0.746607, 0.3], "includesElement__electronegativity_allred-rochow": [0.0003895788, 0.0002479667], "includesElement__electronegativity_cottrell-sutton": [0.2079501, 0.1876467], "includesElement__electronegativity_ghosh": [0.206931, 0.16423], "includesElement__electronegativity_gordy": [0.04324324, 0.03521127], "includesElement__electronegativity_mulliken": [5.616646, 3.043178], "includesElement__electronegativity_nagle": [0.5848035, 0.3587038], "includesElement__electronegativity_pauling": [2.19, 1.78], "includesElement__electronegativity_sanderson": [0.4510269, 0.7172747], "includesElement__en_ghosh": [0.206931, 0.16423], "includesElement__en_pauling": [2.19, 1.78], "includesElement__evaporation_heat": [49.8, 225.1], "includesElement__fusion_heat": [2.51, 3.24], "includesElement__glawe_number": [89, 80], "includesElement__group_id": [15, 13], "includesElement__heat_of_formation": [316.5, 243.0], "includesElement__is_radioactive": [false], "includesElement__lattice_constant": [7.17, 4.59], "includesElement__mendeleev_number": [94, 84], "includesElement__molar_heat_capacity": [23.824, 26.74], "includesElement__period": [3, 5], "includesElement__pettifor_number": [90, 79], "includesElement__specific_heat_capacity": [0.769, 0.233], "includesElement__vdw_radius": [180.0, 193.0], "includesElement__vdw_radius_alvarez": [190.0, 243.0], "includesElement__vdw_radius_mm3": [222.0, 264.0], "includesElement__vdw_radius_uff": [414.7, 446.3], "includesElement__abundance_sea": [0.06, 0.02], "includesElement__atomic_weight_uncertainty": [5e-09, 0.001], "includesElement__c6_gb": [187.0, 643.0], "includesElement__electronegativity_allen": [13.33, 9.793], "includesElement__en_allen": [13.33, 9.793], "includesElement__metallic_radius": [110.0, 142.0], "includesElement__metallic_radius_c12": [128.0, 158.0], "includesElement__vdw_radius_batsanov": [195.0, 220.0], "includesElement__c6": [185.0, 779.0], "includesElement__is_monoisotopic": [true], "includesElement__vdw_radius_dreiding": [415.0, 459.0], "includesElement__gas_basicity": [604.8], "includesElement__proton_affinity": [626.8], "includesElement__vdw_radius_bondi": [180.0, 193.0], "includesElement__thermal_conductivity": [81.8], "formula": ["In1P1"], "spacegroup": ["225"], "thermalConductivity": [5.90485], "icsd": ["53104"], "band_gap": [0.0], "density": [5.702448], "density_atomic": [21.2271], "deprecated": [false], "efermi": [7.133023], "energy_above_hull": [0.2353276], "energy_per_atom": [-15.91328], "formation_energy_per_atom": [-0.122946], "homogeneous_poisson": [0.278], "is_gap_direct": [false], "is_magnetic": [false], "is_metal": [true], "is_stable": [false], "nelements": [2], "nsites": [2], "num_magnetic_sites": [0], "num_unique_magnetic_sites": [0], "theoretical": [false], "total_magnetization": [0.0012054], "total_magnetization_normalized_formula_units": [0.0012054], "total_magnetization_normalized_vol": [2.839294e-05], "uncorrected_energy_per_atom": [-4.052963], "universal_anisotropy": [0.687], "volume": [42.45421]}