{"includesElement": ["", "F", "Sr"], "includesElement___series_id": [6, 4], "includesElement__abundance_crust": [585.0, 370.0], "includesElement__atomic_number": [9, 38], "includesElement__atomic_radius": [50.0, 200.0], "includesElement__atomic_radius_rahm": [163.0, 279.0], "includesElement__atomic_volume": [17.1, 33.7], "includesElement__atomic_weight": [18.9984, 87.62], "includesElement__covalent_radius_cordero": [57.0, 195.0], "includesElement__covalent_radius_pyykko": [64.0, 185.0], "includesElement__covalent_radius_pyykko_double": [59.0, 157.0], "includesElement__covalent_radius_pyykko_triple": [53.0, 139.0], "includesElement__density": [0.001553, 2.64], "includesElement__dipole_polarizability": [3.74, 197.2], "includesElement__dipole_polarizability_unc": [0.08, 0.2], "includesElement__discovery_year": [1886, 1790], "includesElement__electron_affinity": [3.40119, 0.048], "includesElement__electronegativity_allred-rochow": [0.001269531, 8.327246e-05], "includesElement__electronegativity_cottrell-sutton": [0.2850439, 0.1241185], "includesElement__electronegativity_ghosh": [0.344443, 0.1185082], "includesElement__electronegativity_gordy": [0.08125, 0.01540541], "includesElement__electronegativity_mulliken": [10.412, 2.871434], "includesElement__electronegativity_nagle": [1.232373, 0.2164584], "includesElement__electronegativity_pauling": [3.98, 0.95], "includesElement__electronegativity_sanderson": [1.017681, 0.2631786], "includesElement__en_ghosh": [0.344443, 0.1185082], "includesElement__en_pauling": [3.98, 0.95], "includesElement__evaporation_heat": [6.54, 144.0], "includesElement__fusion_heat": [0.51, 9.2], "includesElement__glawe_number": [102, 15], "includesElement__group_id": [17, 2], "includesElement__heat_of_formation": [79.335, 164.0], "includesElement__is_radioactive": [false], "includesElement__mendeleev_number": [106, 8], "includesElement__molar_heat_capacity": [31.304, 26.79], "includesElement__period": [2, 5], "includesElement__pettifor_number": [102, 15], "includesElement__specific_heat_capacity": [0.824, 0.306], "includesElement__vdw_radius": [147.0, 249.0], "includesElement__vdw_radius_alvarez": [146.0, 284.0], "includesElement__vdw_radius_mm3": [171.0, 300.0], "includesElement__vdw_radius_uff": [336.4, 364.1], "includesElement__abundance_sea": [1.3, 7.9], "includesElement__atomic_weight_uncertainty": [6e-09, 0.01], "includesElement__c6_gb": [10.2, 3230.0], "includesElement__covalent_radius_bragg": [67.0, 195.0], "includesElement__electronegativity_allen": [24.8, 5.695], "includesElement__en_allen": [24.8, 5.695], "includesElement__thermal_conductivity": [0.028], "includesElement__vdw_radius_batsanov": [150.0, 255.0], "includesElement__c6": [9.52, 3175.0], "includesElement__is_monoisotopic": [true], "includesElement__vdw_radius_dreiding": [347.2], "includesElement__gas_basicity": [315.1], "includesElement__proton_affinity": [340.1], "includesElement__vdw_radius_bondi": [147.0], "includesElement__vdw_radius_rt": [146.0], "includesElement__lattice_constant": [6.08], "includesElement__metallic_radius": [191.0], "includesElement__metallic_radius_c12": [215.0], "includesElement__vdw_radius_truhlar": [249.0], "formula": ["F2Sr1"], "spacegroup": ["225"], "thermalConductivity": [3.49566], "icsd": ["168800"], "band_gap": [6.7674], "density": [4.279509], "density_atomic": [16.24732], "deprecated": [false], "efermi": [-1.850965], "energy_above_hull": [0.0], "energy_per_atom": [-11.34139], "formation_energy_per_atom": [-4.210395], "homogeneous_poisson": [0.289], "is_gap_direct": [false], "is_magnetic": [false], "is_metal": [false], "is_stable": [true], "nelements": [2], "nsites": [3], "num_magnetic_sites": [0], "num_unique_magnetic_sites": [0], "theoretical": [false], "total_magnetization": [0.0], "total_magnetization_normalized_formula_units": [0.0], "total_magnetization_normalized_vol": [0.0], "uncorrected_energy_per_atom": [-11.34139], "universal_anisotropy": [0.082], "volume": [48.74195], "cbm": [4.8448], "e_electronic": [2.328895], "e_ionic": [4.127999], "e_total": [6.456894], "equilibrium_reaction_energy_per_atom": [-4.210395], "n": [1.526072], "vbm": [-1.9226]}