{"includesElement": ["", "Ga", "Ru"], "includesElement___series_id": [7, 8], "includesElement__abundance_crust": [19.0, 0.001], "includesElement__atomic_number": [31, 44], "includesElement__atomic_radius": [130.0], "includesElement__atomic_radius_rahm": [233.0, 237.0], "includesElement__atomic_volume": [11.8, 8.3], "includesElement__atomic_weight": [69.723, 101.07], "includesElement__covalent_radius_cordero": [122.0, 146.0], "includesElement__covalent_radius_pyykko": [124.0, 125.0], "includesElement__covalent_radius_pyykko_double": [117.0, 114.0], "includesElement__covalent_radius_pyykko_triple": [121.0, 103.0], "includesElement__density": [5.91, 12.1], "includesElement__dipole_polarizability": [50.0, 72.0], "includesElement__dipole_polarizability_unc": [3.0, 10.0], "includesElement__discovery_year": [1875, 1844], "includesElement__electron_affinity": [0.43, 1.05], "includesElement__electronegativity_allred-rochow": [0.0003251821, 0.000208], "includesElement__electronegativity_cottrell-sutton": [0.2008048, 0.1612452], "includesElement__electronegativity_ghosh": [0.1723773, 0.1376494], "includesElement__electronegativity_gordy": [0.04032258, 0.026], "includesElement__electronegativity_mulliken": [3.214651, 4.20525], "includesElement__electronegativity_nagle": [0.3914868, 0.4807499], "includesElement__electronegativity_pauling": [1.81, 2.2], "includesElement__electronegativity_sanderson": [0.720541, 0.9579373], "includesElement__en_ghosh": [0.1723773, 0.1376494], "includesElement__en_pauling": [1.81, 2.2], "includesElement__evaporation_heat": [270.3], "includesElement__fusion_heat": [5.59, 25.5], "includesElement__glawe_number": [79, 61], "includesElement__group_id": [13, 8], "includesElement__heat_of_formation": [271.96, 650.6], "includesElement__is_radioactive": [false], "includesElement__lattice_constant": [4.51, 2.7], "includesElement__mendeleev_number": [83, 60], "includesElement__molar_heat_capacity": [26.03, 24.06], "includesElement__period": [4, 5], "includesElement__pettifor_number": [81, 63], "includesElement__specific_heat_capacity": [0.373, 0.238], "includesElement__vdw_radius": [187.0, 213.0], "includesElement__vdw_radius_alvarez": [232.0, 246.0], "includesElement__vdw_radius_mm3": [246.0, 234.0], "includesElement__vdw_radius_uff": [438.3, 296.3], "includesElement__abundance_sea": [3e-05, 7e-07], "includesElement__atomic_weight_uncertainty": [0.001, 0.02], "includesElement__c6_gb": [456.0, 809.0], "includesElement__electronegativity_allen": [10.39, 9.1], "includesElement__en_allen": [10.39, 9.1], "includesElement__metallic_radius": [125.0], "includesElement__metallic_radius_c12": [140.0, 134.0], "includesElement__thermal_conductivity": [28.1, 117.0], "includesElement__vdw_radius_batsanov": [210.0, 205.0], "includesElement__c6": [498.0], "includesElement__vdw_radius_dreiding": [439.0], "includesElement__vdw_radius_bondi": [187.0], "includesElement__gas_basicity": [751.4], "includesElement__proton_affinity": [774.0], "formula": ["Ga1Ru1"], "spacegroup": ["221"], "thermalConductivity": [15.1707], "icsd": ["103950"], "band_gap": [0.0], "density": [10.48892], "density_atomic": [13.51943], "deprecated": [false], "efermi": [6.841693], "energy_above_hull": [0.0005310187], "energy_per_atom": [-18.76581], "formation_energy_per_atom": [-0.3321547], "homogeneous_poisson": [0.309], "is_gap_direct": [false], "is_magnetic": [false], "is_metal": [true], "is_stable": [false], "nelements": [2], "nsites": [2], "num_magnetic_sites": [0], "num_unique_magnetic_sites": [0], "theoretical": [false], "total_magnetization": [5.71e-05], "total_magnetization_normalized_formula_units": [5.71e-05], "total_magnetization_normalized_vol": [2.111776e-06], "uncorrected_energy_per_atom": [-18.76581], "universal_anisotropy": [0.231], "volume": [27.03886]}