{"includesElement": ["", "Th", "B"], "includesElement___series_id": [10, 5], "includesElement__abundance_crust": [9.6, 10.0], "includesElement__atomic_number": [90, 5], "includesElement__atomic_radius": [180.0, 85.0], "includesElement__atomic_radius_rahm": [288.0, 205.0], "includesElement__atomic_volume": [19.8, 4.6], "includesElement__atomic_weight": [232.0377, 10.81], "includesElement__covalent_radius_cordero": [206.0, 84.0], "includesElement__covalent_radius_pyykko": [175.0, 85.0], "includesElement__covalent_radius_pyykko_double": [143.0, 78.0], "includesElement__covalent_radius_pyykko_triple": [136.0, 73.0], "includesElement__density": [11.7, 2.34], "includesElement__dipole_polarizability": [217.0, 20.5], "includesElement__dipole_polarizability_unc": [54.0, 0.1], "includesElement__discovery_year": [1828, 1808], "includesElement__electronegativity_allred-rochow": [0.0001028571, 0.0003598616], "includesElement__electronegativity_cottrell-sutton": [0.1341641, 0.1748949], "includesElement__electronegativity_ghosh": [0.10277, 0.184886], "includesElement__electronegativity_gordy": [0.018, 0.03058824], "includesElement__electronegativity_mulliken": [3.15335, 4.288871], "includesElement__electronegativity_nagle": [0.2641598, 0.5269739], "includesElement__electronegativity_pauling": [1.3, 2.04], "includesElement__electronegativity_sanderson": [0.5557019, 0.2546274], "includesElement__en_ghosh": [0.10277, 0.184886], "includesElement__en_pauling": [1.3, 2.04], "includesElement__evaporation_heat": [513.7, 504.5], "includesElement__fusion_heat": [16.11, 23.6], "includesElement__glawe_number": [34, 86], "includesElement__heat_of_formation": [602.0, 565.0], "includesElement__is_radioactive": [true, false], "includesElement__lattice_constant": [5.08, 8.73], "includesElement__mendeleev_number": [16, 81], "includesElement__molar_heat_capacity": [27.32, 11.087], "includesElement__period": [7, 2], "includesElement__pettifor_number": [47, 86], "includesElement__specific_heat_capacity": [0.118, 1.026], "includesElement__vdw_radius": [245.0, 192.0], "includesElement__vdw_radius_alvarez": [293.0, 191.0], "includesElement__vdw_radius_mm3": [274.0, 215.0], "includesElement__vdw_radius_uff": [339.6, 408.3], "includesElement__abundance_sea": [1e-06, 4.44], "includesElement__atomic_weight_uncertainty": [0.0004], "includesElement__vdw_radius_batsanov": [240.0, 180.0], "includesElement__electron_affinity": [0.279723], "includesElement__group_id": [13], "includesElement__c6_gb": [99.2], "includesElement__electronegativity_allen": [12.13], "includesElement__en_allen": [12.13], "includesElement__metallic_radius": [80.0], "includesElement__metallic_radius_c12": [98.0], "includesElement__thermal_conductivity": [27.4], "includesElement__c6": [99.5], "includesElement__vdw_radius_dreiding": [402.0], "includesElement__vdw_radius_truhlar": [192.0], "formula": ["B6Th1"], "spacegroup": ["221"], "thermalConductivity": [17.3902], "icsd": ["24703"], "band_gap": [0.0], "density": [7.106602], "density_atomic": [9.910719], "deprecated": [false], "efermi": [8.564503], "energy_above_hull": [0.0], "energy_per_atom": [-17.32021], "formation_energy_per_atom": [-0.5268707], "homogeneous_poisson": [0.219], "is_gap_direct": [false], "is_magnetic": [false], "is_metal": [true], "is_stable": [true], "nelements": [2], "nsites": [7], "num_magnetic_sites": [0], "num_unique_magnetic_sites": [0], "theoretical": [false], "total_magnetization": [1e-07], "total_magnetization_normalized_formula_units": [1e-07], "total_magnetization_normalized_vol": [1.441441e-09], "uncorrected_energy_per_atom": [-17.32021], "universal_anisotropy": [1.8], "volume": [69.37504], "equilibrium_reaction_energy_per_atom": [-0.0624358]}