{"includesElement": ["", "P", "Ho"], "includesElement___series_id": [1, 9], "includesElement__abundance_crust": [1050.0, 1.3], "includesElement__atomic_number": [15, 67], "includesElement__atomic_radius": [100.0, 175.0], "includesElement__atomic_radius_rahm": [223.0, 273.0], "includesElement__atomic_volume": [17.0, 18.7], "includesElement__atomic_weight": [30.97376, 164.9303], "includesElement__covalent_radius_cordero": [107.0, 192.0], "includesElement__covalent_radius_pyykko": [111.0, 166.0], "includesElement__covalent_radius_pyykko_double": [102.0, 133.0], "includesElement__covalent_radius_pyykko_triple": [94.0], "includesElement__density": [1.823, 8.8], "includesElement__dipole_polarizability": [25.0, 156.0], "includesElement__dipole_polarizability_unc": [1.0, 10.0], "includesElement__discovery_year": [1669, 1878], "includesElement__electron_affinity": [0.746607], "includesElement__electronegativity_allred-rochow": [0.0003895788, 0.0001034258], "includesElement__electronegativity_cottrell-sutton": [0.2079501, 0.1310293], "includesElement__electronegativity_ghosh": [0.206931, 0.207795], "includesElement__electronegativity_gordy": [0.04324324, 0.01716867], "includesElement__electronegativity_mulliken": [5.616646, 3.01075], "includesElement__electronegativity_nagle": [0.5848035, 0.4367902], "includesElement__electronegativity_pauling": [2.19, 1.23], "includesElement__electronegativity_sanderson": [0.4510269, 0.5434919], "includesElement__en_ghosh": [0.206931, 0.207795], "includesElement__en_pauling": [2.19, 1.23], "includesElement__evaporation_heat": [49.8, 301.0], "includesElement__fusion_heat": [2.51], "includesElement__glawe_number": [89, 23], "includesElement__group_id": [15], "includesElement__heat_of_formation": [316.5, 300.6], "includesElement__is_radioactive": [false], "includesElement__lattice_constant": [7.17, 3.58], "includesElement__mendeleev_number": [94, 33], "includesElement__molar_heat_capacity": [23.824, 27.15], "includesElement__period": [3, 6], "includesElement__pettifor_number": [90, 24], "includesElement__specific_heat_capacity": [0.769, 0.165], "includesElement__vdw_radius": [180.0, 230.0], "includesElement__vdw_radius_alvarez": [190.0, 281.0], "includesElement__vdw_radius_mm3": [222.0, 267.0], "includesElement__vdw_radius_uff": [414.7, 340.9], "includesElement__abundance_sea": [0.06, 2.2e-07], "includesElement__atomic_weight_uncertainty": [5e-09, 2e-05], "includesElement__c6_gb": [187.0, 2280.0], "includesElement__electronegativity_allen": [13.33], "includesElement__en_allen": [13.33], "includesElement__metallic_radius": [110.0], "includesElement__metallic_radius_c12": [128.0], "includesElement__vdw_radius_batsanov": [195.0], "includesElement__c6": [185.0], "includesElement__is_monoisotopic": [true], "includesElement__vdw_radius_dreiding": [415.0], "includesElement__gas_basicity": [604.8], "includesElement__proton_affinity": [626.8], "includesElement__vdw_radius_bondi": [180.0], "formula": ["Ho1P1"], "spacegroup": ["225"], "thermalConductivity": [20.7779], "icsd": ["187361"], "band_gap": [0.0], "density": [7.27728], "density_atomic": [22.35082], "deprecated": [false], "efermi": [4.572889], "energy_above_hull": [0.0], "energy_per_atom": [-22.79334], "formation_energy_per_atom": [-1.851629], "homogeneous_poisson": [0.218], "is_gap_direct": [false], "is_magnetic": [false], "is_metal": [true], "is_stable": [true], "nelements": [2], "nsites": [2], "num_magnetic_sites": [0], "num_unique_magnetic_sites": [0], "theoretical": [false], "total_magnetization": [1e-07], "total_magnetization_normalized_formula_units": [1e-07], "total_magnetization_normalized_vol": [2.237054e-09], "uncorrected_energy_per_atom": [-22.79334], "universal_anisotropy": [0.55], "volume": [44.70164], "equilibrium_reaction_energy_per_atom": [-1.473602]}