{"includesElement": ["", "P", "Pt"], "includesElement___series_id": [1, 8], "includesElement__abundance_crust": [1050.0, 0.005], "includesElement__atomic_number": [15, 78], "includesElement__atomic_radius": [100.0, 135.0], "includesElement__atomic_radius_rahm": [223.0, 230.0], "includesElement__atomic_volume": [17.0, 9.1], "includesElement__atomic_weight": [30.97376, 195.084], "includesElement__covalent_radius_cordero": [107.0, 136.0], "includesElement__covalent_radius_pyykko": [111.0, 123.0], "includesElement__covalent_radius_pyykko_double": [102.0, 112.0], "includesElement__covalent_radius_pyykko_triple": [94.0, 110.0], "includesElement__density": [1.823, 21.5], "includesElement__dipole_polarizability": [25.0, 48.0], "includesElement__dipole_polarizability_unc": [1.0, 4.0], "includesElement__discovery_year": [1669, 1735], "includesElement__electron_affinity": [0.746607, 2.128], "includesElement__electronegativity_allred-rochow": [0.0003895788, 0.0002346487], "includesElement__electronegativity_cottrell-sutton": [0.2079501, 0.1698876], "includesElement__electronegativity_ghosh": [0.206931, 0.25691], "includesElement__electronegativity_gordy": [0.04324324, 0.02886179], "includesElement__electronegativity_mulliken": [5.616646, 5.543415], "includesElement__electronegativity_nagle": [0.5848035, 0.5928156], "includesElement__electronegativity_pauling": [2.19, 2.2], "includesElement__electronegativity_sanderson": [0.4510269, 1.45101], "includesElement__en_ghosh": [0.206931, 0.25691], "includesElement__en_pauling": [2.19, 2.2], "includesElement__evaporation_heat": [49.8, 470.0], "includesElement__fusion_heat": [2.51, 21.76], "includesElement__glawe_number": [89, 64], "includesElement__group_id": [15, 10], "includesElement__heat_of_formation": [316.5, 565.7], "includesElement__is_radioactive": [false], "includesElement__lattice_constant": [7.17, 3.92], "includesElement__mendeleev_number": [94, 69], "includesElement__molar_heat_capacity": [23.824, 25.86], "includesElement__period": [3, 6], "includesElement__pettifor_number": [90, 68], "includesElement__specific_heat_capacity": [0.769, 0.133], "includesElement__vdw_radius": [180.0, 213.0], "includesElement__vdw_radius_alvarez": [190.0, 229.0], "includesElement__vdw_radius_mm3": [222.0, 239.0], "includesElement__vdw_radius_uff": [414.7, 275.4], "includesElement__abundance_sea": [0.06], "includesElement__atomic_weight_uncertainty": [5e-09, 0.009], "includesElement__c6_gb": [187.0, 470.0], "includesElement__electronegativity_allen": [13.33, 10.16], "includesElement__en_allen": [13.33, 10.16], "includesElement__metallic_radius": [110.0, 130.0], "includesElement__metallic_radius_c12": [128.0, 139.0], "includesElement__vdw_radius_batsanov": [195.0, 205.0], "includesElement__c6": [185.0], "includesElement__is_monoisotopic": [true], "includesElement__vdw_radius_dreiding": [415.0], "includesElement__gas_basicity": [604.8], "includesElement__proton_affinity": [626.8], "includesElement__vdw_radius_bondi": [180.0], "includesElement__thermal_conductivity": [71.6], "formula": ["P8Pt4"], "spacegroup": ["205"], "thermalConductivity": [7.39102], "icsd": ["15026"], "band_gap": [1.0186], "density": [9.10987], "density_atomic": [15.61716], "deprecated": [false], "efermi": [7.921436], "energy_above_hull": [0.0], "energy_per_atom": [-23.95355], "formation_energy_per_atom": [-0.7895928], "homogeneous_poisson": [0.226], "is_gap_direct": [false], "is_magnetic": [false], "is_metal": [false], "is_stable": [true], "nelements": [2], "nsites": [12], "num_magnetic_sites": [0], "num_unique_magnetic_sites": [0], "theoretical": [false], "total_magnetization": [0.0], "total_magnetization_normalized_formula_units": [0.0], "total_magnetization_normalized_vol": [0.0], "uncorrected_energy_per_atom": [-23.95355], "universal_anisotropy": [0.386], "volume": [187.4059], "cbm": [8.8775], "e_electronic": [19.64545], "e_ionic": [3.182832], "e_total": [22.82829], "equilibrium_reaction_energy_per_atom": [-0.5820182], "n": [4.432319], "vbm": [7.8589]}