{"includesElement": ["", "Se", "Sr"], "includesElement___series_id": [1, 4], "includesElement__abundance_crust": [0.05, 370.0], "includesElement__atomic_number": [34, 38], "includesElement__atomic_radius": [115.0, 200.0], "includesElement__atomic_radius_rahm": [224.0, 279.0], "includesElement__atomic_volume": [16.5, 33.7], "includesElement__atomic_weight": [78.971, 87.62], "includesElement__covalent_radius_cordero": [120.0, 195.0], "includesElement__covalent_radius_pyykko": [116.0, 185.0], "includesElement__covalent_radius_pyykko_double": [107.0, 157.0], "includesElement__covalent_radius_pyykko_triple": [107.0, 139.0], "includesElement__density": [4.809, 2.64], "includesElement__dipole_polarizability": [28.9, 197.2], "includesElement__dipole_polarizability_unc": [1.0, 0.2], "includesElement__discovery_year": [1818, 1790], "includesElement__electron_affinity": [2.02067, 0.048], "includesElement__electronegativity_allred-rochow": [0.0005164982, 8.327246e-05], "includesElement__electronegativity_cottrell-sutton": [0.2447729, 0.1241185], "includesElement__electronegativity_ghosh": [0.2240328, 0.1185082], "includesElement__electronegativity_gordy": [0.05991379, 0.01540541], "includesElement__electronegativity_mulliken": [5.886531, 2.871434], "includesElement__electronegativity_nagle": [0.592131, 0.2164584], "includesElement__electronegativity_pauling": [2.55, 0.95], "includesElement__electronegativity_sanderson": [0.9659121, 0.2631786], "includesElement__en_ghosh": [0.2240328, 0.1185082], "includesElement__en_pauling": [2.55, 0.95], "includesElement__evaporation_heat": [59.7, 144.0], "includesElement__fusion_heat": [5.23, 9.2], "includesElement__glawe_number": [95, 15], "includesElement__group_id": [16, 2], "includesElement__heat_of_formation": [227.2, 164.0], "includesElement__is_radioactive": [false], "includesElement__lattice_constant": [4.36, 6.08], "includesElement__mendeleev_number": [101, 8], "includesElement__molar_heat_capacity": [25.363, 26.79], "includesElement__period": [4, 5], "includesElement__pettifor_number": [93, 15], "includesElement__specific_heat_capacity": [0.321, 0.306], "includesElement__vdw_radius": [190.0, 249.0], "includesElement__vdw_radius_alvarez": [182.0, 284.0], "includesElement__vdw_radius_mm3": [229.0, 300.0], "includesElement__vdw_radius_uff": [420.5, 364.1], "includesElement__abundance_sea": [0.0002, 7.9], "includesElement__atomic_weight_uncertainty": [0.008, 0.01], "includesElement__c6_gb": [233.0, 3230.0], "includesElement__covalent_radius_bragg": [117.0, 195.0], "includesElement__electronegativity_allen": [14.34, 5.695], "includesElement__en_allen": [14.34, 5.695], "includesElement__metallic_radius": [117.0, 191.0], "includesElement__metallic_radius_c12": [140.0, 215.0], "includesElement__thermal_conductivity": [0.52], "includesElement__vdw_radius_batsanov": [190.0, 255.0], "includesElement__c6": [210.0, 3175.0], "includesElement__vdw_radius_dreiding": [403.0], "includesElement__vdw_radius_bondi": [190.0], "includesElement__vdw_radius_truhlar": [249.0], "formula": ["Se1Sr1"], "spacegroup": ["225"], "thermalConductivity": [6.92184], "icsd": ["182720"], "band_gap": [2.2313], "density": [4.468616], "density_atomic": [30.95059], "deprecated": [false], "efermi": [1.618259], "energy_above_hull": [0.0], "energy_per_atom": [-17.08116], "formation_energy_per_atom": [-2.352554], "homogeneous_poisson": [0.231], "is_gap_direct": [false], "is_magnetic": [false], "is_metal": [false], "is_stable": [true], "nelements": [2], "nsites": [2], "num_magnetic_sites": [0], "num_unique_magnetic_sites": [0], "theoretical": [false], "total_magnetization": [0.0], "total_magnetization_normalized_formula_units": [0.0], "total_magnetization_normalized_vol": [0.0], "uncorrected_energy_per_atom": [-17.08116], "universal_anisotropy": [0.454], "volume": [61.90119], "cbm": [3.7112], "e_electronic": [5.177216], "e_ionic": [6.709883], "e_total": [11.8871], "equilibrium_reaction_energy_per_atom": [-2.352554], "n": [2.27535], "vbm": [1.4799]}