{"includesElement": ["", "As"], "includesElement___series_id": [5], "includesElement__abundance_crust": [1.8], "includesElement__atomic_number": [33], "includesElement__atomic_radius": [115.0], "includesElement__atomic_radius_rahm": [231.0], "includesElement__atomic_volume": [13.1], "includesElement__atomic_weight": [74.92159], "includesElement__covalent_radius_cordero": [119.0], "includesElement__covalent_radius_pyykko": [121.0], "includesElement__covalent_radius_pyykko_double": [114.0], "includesElement__covalent_radius_pyykko_triple": [106.0], "includesElement__density": [5.75], "includesElement__dipole_polarizability": [30.0], "includesElement__dipole_polarizability_unc": [1.0], "includesElement__electron_affinity": [0.804], "includesElement__electronegativity_allred-rochow": [0.0004302985], "includesElement__electronegativity_cottrell-sutton": [0.22818], "includesElement__electronegativity_ghosh": [0.2068208], "includesElement__electronegativity_gordy": [0.05206612], "includesElement__electronegativity_mulliken": [5.2965], "includesElement__electronegativity_nagle": [0.5503212], "includesElement__electronegativity_pauling": [2.18], "includesElement__electronegativity_sanderson": [0.8253373], "includesElement__en_ghosh": [0.2068208], "includesElement__en_pauling": [2.18], "includesElement__evaporation_heat": [32.4], "includesElement__glawe_number": [90], "includesElement__group_id": [15], "includesElement__heat_of_formation": [302.5], "includesElement__is_radioactive": [false], "includesElement__lattice_constant": [4.13], "includesElement__mendeleev_number": [95], "includesElement__molar_heat_capacity": [24.64], "includesElement__period": [4], "includesElement__pettifor_number": [89], "includesElement__specific_heat_capacity": [0.329], "includesElement__vdw_radius": [185.0], "includesElement__vdw_radius_alvarez": [188.0], "includesElement__vdw_radius_mm3": [236.0], "includesElement__vdw_radius_uff": [423.0], "includesElement__abundance_sea": [0.0037], "includesElement__atomic_weight_uncertainty": [6e-06], "includesElement__c6_gb": [260.0], "includesElement__covalent_radius_bragg": [126.0], "includesElement__electronegativity_allen": [13.08], "includesElement__en_allen": [13.08], "includesElement__metallic_radius": [121.0], "includesElement__metallic_radius_c12": [148.0], "includesElement__vdw_radius_batsanov": [205.0], "includesElement__c6": [246.0], "includesElement__is_monoisotopic": [true], "includesElement__vdw_radius_dreiding": [415.0], "includesElement__vdw_radius_bondi": [185.0], "formula": ["As1"], "spacegroup": ["221"], "thermalConductivity": [7.55152], "icsd": ["162842"], "band_gap": [0.0], "density": [6.294909], "density_atomic": [19.76363], "deprecated": [false], "efermi": [5.532509], "energy_above_hull": [0.1530046], "energy_per_atom": [-14.55453], "formation_energy_per_atom": [0.1530046], "homogeneous_poisson": [0.321], "is_gap_direct": [false], "is_magnetic": [false], "is_metal": [true], "is_stable": [false], "nelements": [1], "nsites": [2], "num_magnetic_sites": [0], "num_unique_magnetic_sites": [0], "theoretical": [true], "total_magnetization": [0.0], "total_magnetization_normalized_formula_units": [0.0], "total_magnetization_normalized_vol": [0.0], "uncorrected_energy_per_atom": [-14.55453], "universal_anisotropy": [2.487], "volume": [39.52726]}