{"includesElement": ["", "Pd", "B"], "includesElement___series_id": [8, 5], "includesElement__abundance_crust": [0.015, 10.0], "includesElement__atomic_number": [46, 5], "includesElement__atomic_radius": [140.0, 85.0], "includesElement__atomic_radius_rahm": [215.0, 205.0], "includesElement__atomic_volume": [8.9, 4.6], "includesElement__atomic_weight": [106.42, 10.81], "includesElement__covalent_radius_cordero": [139.0, 84.0], "includesElement__covalent_radius_pyykko": [120.0, 85.0], "includesElement__covalent_radius_pyykko_double": [117.0, 78.0], "includesElement__covalent_radius_pyykko_triple": [112.0, 73.0], "includesElement__density": [12.0, 2.34], "includesElement__dipole_polarizability": [26.14, 20.5], "includesElement__dipole_polarizability_unc": [0.1], "includesElement__discovery_year": [1803, 1808], "includesElement__electron_affinity": [0.562, 0.279723], "includesElement__electronegativity_allred-rochow": [0.0004756944, 0.0003598616], "includesElement__electronegativity_cottrell-sutton": [0.2389212, 0.1748949], "includesElement__electronegativity_ghosh": [0.1440276, 0.184886], "includesElement__electronegativity_gordy": [0.05708333, 0.03058824], "includesElement__electronegativity_mulliken": [4.44943, 4.288871], "includesElement__electronegativity_nagle": [0.7259357, 0.5269739], "includesElement__electronegativity_pauling": [2.2, 2.04], "includesElement__electronegativity_sanderson": [1.124263, 0.2546274], "includesElement__en_ghosh": [0.1440276, 0.184886], "includesElement__en_pauling": [2.2, 2.04], "includesElement__evaporation_heat": [372.4, 504.5], "includesElement__fusion_heat": [17.24, 23.6], "includesElement__glawe_number": [65, 86], "includesElement__group_id": [10, 13], "includesElement__heat_of_formation": [376.6, 565.0], "includesElement__is_radioactive": [false], "includesElement__lattice_constant": [3.89, 8.73], "includesElement__mendeleev_number": [68, 81], "includesElement__molar_heat_capacity": [25.98, 11.087], "includesElement__period": [5, 2], "includesElement__pettifor_number": [69, 86], "includesElement__specific_heat_capacity": [0.246, 1.026], "includesElement__vdw_radius": [210.0, 192.0], "includesElement__vdw_radius_alvarez": [215.0, 191.0], "includesElement__vdw_radius_mm3": [237.0, 215.0], "includesElement__vdw_radius_uff": [289.9, 408.3], "includesElement__atomic_weight_uncertainty": [0.01], "includesElement__c6_gb": [628.0, 99.2], "includesElement__electronegativity_allen": [9.402, 12.13], "includesElement__en_allen": [9.402, 12.13], "includesElement__metallic_radius": [128.0, 80.0], "includesElement__metallic_radius_c12": [137.0, 98.0], "includesElement__thermal_conductivity": [71.8, 27.4], "includesElement__vdw_radius_batsanov": [205.0, 180.0], "includesElement__gas_basicity": [673.4], "includesElement__proton_affinity": [696.0], "includesElement__abundance_sea": [4.44], "includesElement__c6": [99.5], "includesElement__vdw_radius_dreiding": [402.0], "includesElement__vdw_radius_truhlar": [192.0], "formula": ["B2Pd4"], "spacegroup": ["58"], "thermalConductivity": [3.82102], "icsd": ["10487"], "band_gap": [0.0], "density": [9.719013], "density_atomic": [12.73728], "deprecated": [false], "efermi": [5.214371], "energy_above_hull": [0.0], "energy_per_atom": [-18.03109], "formation_energy_per_atom": [-0.2753381], "homogeneous_poisson": [0.377], "is_gap_direct": [false], "is_magnetic": [false], "is_metal": [true], "is_stable": [true], "nelements": [2], "nsites": [6], "num_magnetic_sites": [0], "num_unique_magnetic_sites": [0], "theoretical": [false], "total_magnetization": [0.0], "total_magnetization_normalized_formula_units": [0.0], "total_magnetization_normalized_vol": [0.0], "uncorrected_energy_per_atom": [-18.03109], "universal_anisotropy": [1.178], "volume": [76.42365], "equilibrium_reaction_energy_per_atom": [-0.04135709]}