{"includesElement": ["", "P", "Al"], "includesElement___series_id": [1, 7], "includesElement__abundance_crust": [1050.0, 82300.0], "includesElement__atomic_number": [15, 13], "includesElement__atomic_radius": [100.0, 125.0], "includesElement__atomic_radius_rahm": [223.0, 239.0], "includesElement__atomic_volume": [17.0, 10.0], "includesElement__atomic_weight": [30.97376, 26.98154], "includesElement__covalent_radius_cordero": [107.0, 121.0], "includesElement__covalent_radius_pyykko": [111.0, 126.0], "includesElement__covalent_radius_pyykko_double": [102.0, 113.0], "includesElement__covalent_radius_pyykko_triple": [94.0, 111.0], "includesElement__density": [1.823, 2.7], "includesElement__dipole_polarizability": [25.0, 57.8], "includesElement__dipole_polarizability_unc": [1.0], "includesElement__discovery_year": [1669, 1825], "includesElement__electron_affinity": [0.746607, 0.43283], "includesElement__electronegativity_allred-rochow": [0.0003895788, 0.0002204586], "includesElement__electronegativity_cottrell-sutton": [0.2079501, 0.1666667], "includesElement__electronegativity_ghosh": [0.206931, 0.150078], "includesElement__electronegativity_gordy": [0.04324324, 0.02777778], "includesElement__electronegativity_mulliken": [5.616646, 3.209299], "includesElement__electronegativity_nagle": [0.5848035, 0.3730192], "includesElement__electronegativity_pauling": [2.19, 1.61], "includesElement__electronegativity_sanderson": [0.4510269, 0.2360927], "includesElement__en_ghosh": [0.206931, 0.150078], "includesElement__en_pauling": [2.19, 1.61], "includesElement__evaporation_heat": [49.8, 284.1], "includesElement__fusion_heat": [2.51, 10.75], "includesElement__glawe_number": [89, 78], "includesElement__group_id": [15, 13], "includesElement__heat_of_formation": [316.5, 330.9], "includesElement__is_radioactive": [false], "includesElement__lattice_constant": [7.17, 4.05], "includesElement__mendeleev_number": [94, 82], "includesElement__molar_heat_capacity": [23.824, 24.2], "includesElement__period": [3], "includesElement__pettifor_number": [90, 80], "includesElement__specific_heat_capacity": [0.769, 0.897], "includesElement__vdw_radius": [180.0, 184.0], "includesElement__vdw_radius_alvarez": [190.0, 225.0], "includesElement__vdw_radius_mm3": [222.0, 236.0], "includesElement__vdw_radius_uff": [414.7, 449.9], "includesElement__abundance_sea": [0.06, 0.002], "includesElement__atomic_weight_uncertainty": [5e-09, 7e-07], "includesElement__c6_gb": [187.0, 520.0], "includesElement__electronegativity_allen": [13.33, 9.539], "includesElement__en_allen": [13.33, 9.539], "includesElement__metallic_radius": [110.0, 125.0], "includesElement__metallic_radius_c12": [128.0, 143.0], "includesElement__vdw_radius_batsanov": [195.0, 210.0], "includesElement__c6": [185.0, 528.0], "includesElement__is_monoisotopic": [true], "includesElement__vdw_radius_dreiding": [415.0, 439.0], "includesElement__gas_basicity": [604.8], "includesElement__proton_affinity": [626.8], "includesElement__vdw_radius_bondi": [180.0], "includesElement__covalent_radius_bragg": [135.0], "includesElement__thermal_conductivity": [237.0], "includesElement__vdw_radius_truhlar": [184.0], "formula": ["Al1P1", "AlP"], "mp_id": ["mp-1550"], "spacegroup": ["216"], "thermalConductivity": [19.362, 77.32896, 80.29746], "icsd": ["24490"], "band_gap": [1.6294], "density": [2.348192], "density_atomic": [20.49173], "deprecated": [false], "efermi": [4.369781], "energy_above_hull": [0.0], "energy_per_atom": [-8.604336], "formation_energy_per_atom": [-0.7372488], "homogeneous_poisson": [0.259], "is_gap_direct": [false], "is_magnetic": [false], "is_metal": [false], "is_stable": [true], "nelements": [2], "nsites": [2], "num_magnetic_sites": [0], "num_unique_magnetic_sites": [0], "theoretical": [false], "total_magnetization": [0.0], "total_magnetization_normalized_formula_units": [0.0], "total_magnetization_normalized_vol": [0.0], "uncorrected_energy_per_atom": [-8.604336], "universal_anisotropy": [0.518], "volume": [40.98346], "cbm": [5.9794], "e_electronic": [8.142619], "e_ionic": [2.269865], "e_total": [10.41248], "equilibrium_reaction_energy_per_atom": [-0.7372488], "n": [2.853527], "vbm": [4.35], "e_ij_max": [0.00062]}