{"includesElement": ["", "Pb", "Sr"], "includesElement___series_id": [7, 4], "includesElement__abundance_crust": [14.0, 370.0], "includesElement__atomic_number": [82, 38], "includesElement__atomic_radius": [180.0, 200.0], "includesElement__atomic_radius_rahm": [249.0, 279.0], "includesElement__atomic_volume": [18.3, 33.7], "includesElement__atomic_weight": [207.2, 87.62], "includesElement__covalent_radius_cordero": [146.0, 195.0], "includesElement__covalent_radius_pyykko": [144.0, 185.0], "includesElement__covalent_radius_pyykko_double": [135.0, 157.0], "includesElement__covalent_radius_pyykko_triple": [137.0, 139.0], "includesElement__density": [11.3, 2.64], "includesElement__dipole_polarizability": [47.0, 197.2], "includesElement__dipole_polarizability_unc": [3.0, 0.2], "includesElement__electron_affinity": [0.3567432, 0.048], "includesElement__electronegativity_allred-rochow": [0.000272473, 8.327246e-05], "includesElement__electronegativity_cottrell-sutton": [0.1980811, 0.1241185], "includesElement__electronegativity_ghosh": [0.177911, 0.1185082], "includesElement__electronegativity_gordy": [0.03923611, 0.01540541], "includesElement__electronegativity_mulliken": [3.886711, 2.871434], "includesElement__electronegativity_nagle": [0.4398663, 0.2164584], "includesElement__electronegativity_pauling": [1.8, 0.95], "includesElement__electronegativity_sanderson": [0.9313226, 0.2631786], "includesElement__en_ghosh": [0.177911, 0.1185082], "includesElement__en_pauling": [1.8, 0.95], "includesElement__evaporation_heat": [177.8, 144.0], "includesElement__fusion_heat": [4.77, 9.2], "includesElement__glawe_number": [82, 15], "includesElement__group_id": [14, 2], "includesElement__heat_of_formation": [195.2, 164.0], "includesElement__is_radioactive": [false], "includesElement__lattice_constant": [4.95, 6.08], "includesElement__mendeleev_number": [91, 8], "includesElement__molar_heat_capacity": [26.84, 26.79], "includesElement__period": [6, 5], "includesElement__pettifor_number": [82, 15], "includesElement__specific_heat_capacity": [0.13, 0.306], "includesElement__vdw_radius": [202.0, 249.0], "includesElement__vdw_radius_alvarez": [260.0, 284.0], "includesElement__vdw_radius_mm3": [274.0, 300.0], "includesElement__vdw_radius_uff": [429.7, 364.1], "includesElement__abundance_sea": [3e-05, 7.9], "includesElement__atomic_weight_uncertainty": [0.1, 0.01], "includesElement__c6_gb": [534.0, 3230.0], "includesElement__electronegativity_allen": [10.97, 5.695], "includesElement__en_allen": [10.97, 5.695], "includesElement__metallic_radius": [150.0, 191.0], "includesElement__metallic_radius_c12": [170.0, 215.0], "includesElement__thermal_conductivity": [35.3], "includesElement__vdw_radius_batsanov": [230.0, 255.0], "includesElement__vdw_radius_bondi": [202.0], "includesElement__discovery_year": [1790], "includesElement__covalent_radius_bragg": [195.0], "includesElement__c6": [3175.0], "includesElement__vdw_radius_truhlar": [249.0], "formula": ["Pb4Sr8"], "spacegroup": ["62"], "thermalConductivity": [0.813002], "icsd": ["105624"], "band_gap": [0.0], "density": [5.398791], "density_atomic": [39.2098], "deprecated": [false], "efermi": [3.235489], "energy_above_hull": [0.0], "energy_per_atom": [-29.54797], "formation_energy_per_atom": [-0.689152], "is_gap_direct": [false], "is_magnetic": [false], "is_metal": [true], "is_stable": [true], "nelements": [2], "nsites": [12], "num_magnetic_sites": [0], "num_unique_magnetic_sites": [0], "theoretical": [false], "total_magnetization": [0.0], "total_magnetization_normalized_formula_units": [0.0], "total_magnetization_normalized_vol": [0.0], "uncorrected_energy_per_atom": [-29.54797], "volume": [470.5176], "equilibrium_reaction_energy_per_atom": [-0.2216971]}