{"includesElement": ["", "Si", "Th"], "includesElement___series_id": [5, 10], "includesElement__abundance_crust": [282000.0, 9.6], "includesElement__atomic_number": [14, 90], "includesElement__atomic_radius": [110.0, 180.0], "includesElement__atomic_radius_rahm": [232.0, 288.0], "includesElement__atomic_volume": [12.1, 19.8], "includesElement__atomic_weight": [28.085, 232.0377], "includesElement__covalent_radius_cordero": [111.0, 206.0], "includesElement__covalent_radius_pyykko": [116.0, 175.0], "includesElement__covalent_radius_pyykko_double": [107.0, 143.0], "includesElement__covalent_radius_pyykko_triple": [102.0, 136.0], "includesElement__density": [2.3296, 11.7], "includesElement__dipole_polarizability": [37.3, 217.0], "includesElement__dipole_polarizability_unc": [0.7, 54.0], "includesElement__discovery_year": [1824, 1828], "includesElement__electron_affinity": [1.389521], "includesElement__electronegativity_allred-rochow": [0.0003084126, 0.0001028571], "includesElement__electronegativity_cottrell-sutton": [0.1891451, 0.1341641], "includesElement__electronegativity_ghosh": [0.178503, 0.10277], "includesElement__electronegativity_gordy": [0.03577586, 0.018], "includesElement__electronegativity_mulliken": [4.770602, 3.15335], "includesElement__electronegativity_nagle": [0.4750986, 0.2641598], "includesElement__electronegativity_pauling": [1.9, 1.3], "includesElement__electronegativity_sanderson": [0.3468158, 0.5557019], "includesElement__en_ghosh": [0.178503, 0.10277], "includesElement__en_pauling": [1.9, 1.3], "includesElement__evaporation_heat": [383.0, 513.7], "includesElement__fusion_heat": [50.6, 16.11], "includesElement__glawe_number": [85, 34], "includesElement__group_id": [14], "includesElement__heat_of_formation": [450.0, 602.0], "includesElement__is_radioactive": [false, true], "includesElement__lattice_constant": [5.43, 5.08], "includesElement__mendeleev_number": [88, 16], "includesElement__molar_heat_capacity": [19.99, 27.32], "includesElement__period": [3, 7], "includesElement__pettifor_number": [85, 47], "includesElement__specific_heat_capacity": [0.712, 0.118], "includesElement__vdw_radius": [210.0, 245.0], "includesElement__vdw_radius_alvarez": [219.0, 293.0], "includesElement__vdw_radius_mm3": [229.0, 274.0], "includesElement__vdw_radius_uff": [429.5, 339.6], "includesElement__abundance_sea": [2.2, 1e-06], "includesElement__c6_gb": [308.0], "includesElement__covalent_radius_bragg": [117.0], "includesElement__electronegativity_allen": [11.33], "includesElement__en_allen": [11.33], "includesElement__metallic_radius": [117.0], "includesElement__metallic_radius_c12": [138.0], "includesElement__thermal_conductivity": [149.0], "includesElement__vdw_radius_batsanov": [210.0, 240.0], "includesElement__c6": [305.0], "includesElement__vdw_radius_dreiding": [427.0], "includesElement__gas_basicity": [814.1], "includesElement__proton_affinity": [837.0], "includesElement__vdw_radius_bondi": [210.0], "includesElement__atomic_weight_uncertainty": [0.0004], "formula": ["Si4Th4"], "spacegroup": ["62"], "thermalConductivity": [4.08407], "icsd": ["652392"], "band_gap": [0.0], "density": [8.843691], "density_atomic": [24.4211], "deprecated": [false], "efermi": [7.873041], "energy_above_hull": [0.0], "energy_per_atom": [-41.84428], "formation_energy_per_atom": [-0.7197681], "is_gap_direct": [false], "is_magnetic": [false], "is_metal": [true], "is_stable": [true], "nelements": [2], "nsites": [8], "num_magnetic_sites": [0], "num_unique_magnetic_sites": [0], "theoretical": [false], "total_magnetization": [0.0], "total_magnetization_normalized_formula_units": [0.0], "total_magnetization_normalized_vol": [0.0], "uncorrected_energy_per_atom": [-41.84428], "volume": [195.3688], "equilibrium_reaction_energy_per_atom": [-0.05389168]}