{"includesElement": ["", "Sr", "B"], "includesElement___series_id": [4, 5], "includesElement__abundance_crust": [370.0, 10.0], "includesElement__atomic_number": [38, 5], "includesElement__atomic_radius": [200.0, 85.0], "includesElement__atomic_radius_rahm": [279.0, 205.0], "includesElement__atomic_volume": [33.7, 4.6], "includesElement__atomic_weight": [87.62, 10.81], "includesElement__covalent_radius_cordero": [195.0, 84.0], "includesElement__covalent_radius_pyykko": [185.0, 85.0], "includesElement__covalent_radius_pyykko_double": [157.0, 78.0], "includesElement__covalent_radius_pyykko_triple": [139.0, 73.0], "includesElement__density": [2.64, 2.34], "includesElement__dipole_polarizability": [197.2, 20.5], "includesElement__dipole_polarizability_unc": [0.2, 0.1], "includesElement__discovery_year": [1790, 1808], "includesElement__electron_affinity": [0.048, 0.279723], "includesElement__electronegativity_allred-rochow": [8.327246e-05, 0.0003598616], "includesElement__electronegativity_cottrell-sutton": [0.1241185, 0.1748949], "includesElement__electronegativity_ghosh": [0.1185082, 0.184886], "includesElement__electronegativity_gordy": [0.01540541, 0.03058824], "includesElement__electronegativity_mulliken": [2.871434, 4.288871], "includesElement__electronegativity_nagle": [0.2164584, 0.5269739], "includesElement__electronegativity_pauling": [0.95, 2.04], "includesElement__electronegativity_sanderson": [0.2631786, 0.2546274], "includesElement__en_ghosh": [0.1185082, 0.184886], "includesElement__en_pauling": [0.95, 2.04], "includesElement__evaporation_heat": [144.0, 504.5], "includesElement__fusion_heat": [9.2, 23.6], "includesElement__glawe_number": [15, 86], "includesElement__group_id": [2, 13], "includesElement__heat_of_formation": [164.0, 565.0], "includesElement__is_radioactive": [false], "includesElement__lattice_constant": [6.08, 8.73], "includesElement__mendeleev_number": [8, 81], "includesElement__molar_heat_capacity": [26.79, 11.087], "includesElement__period": [5, 2], "includesElement__pettifor_number": [15, 86], "includesElement__specific_heat_capacity": [0.306, 1.026], "includesElement__vdw_radius": [249.0, 192.0], "includesElement__vdw_radius_alvarez": [284.0, 191.0], "includesElement__vdw_radius_mm3": [300.0, 215.0], "includesElement__vdw_radius_uff": [364.1, 408.3], "includesElement__abundance_sea": [7.9, 4.44], "includesElement__atomic_weight_uncertainty": [0.01], "includesElement__c6_gb": [3230.0, 99.2], "includesElement__covalent_radius_bragg": [195.0], "includesElement__electronegativity_allen": [5.695, 12.13], "includesElement__en_allen": [5.695, 12.13], "includesElement__metallic_radius": [191.0, 80.0], "includesElement__metallic_radius_c12": [215.0, 98.0], "includesElement__vdw_radius_batsanov": [255.0, 180.0], "includesElement__c6": [3175.0, 99.5], "includesElement__vdw_radius_truhlar": [249.0, 192.0], "includesElement__thermal_conductivity": [27.4], "includesElement__vdw_radius_dreiding": [402.0], "formula": ["B6Sr1"], "spacegroup": ["221"], "thermalConductivity": [31.7532], "icsd": ["50313"], "band_gap": [0.0], "density": [3.441699], "density_atomic": [10.51013], "deprecated": [false], "efermi": [4.471726], "energy_above_hull": [0.0], "energy_per_atom": [-8.979554], "formation_energy_per_atom": [-0.5190132], "homogeneous_poisson": [0.196], "is_gap_direct": [false], "is_magnetic": [false], "is_metal": [true], "is_stable": [true], "nelements": [2], "nsites": [7], "num_magnetic_sites": [0], "num_unique_magnetic_sites": [0], "theoretical": [false], "total_magnetization": [0.0], "total_magnetization_normalized_formula_units": [0.0], "total_magnetization_normalized_vol": [0.0], "uncorrected_energy_per_atom": [-8.979554], "universal_anisotropy": [1.336], "volume": [73.57091], "equilibrium_reaction_energy_per_atom": [-0.5190132]}