{"includesElement": ["", "Rb", "Te"], "includesElement___series_id": [3, 5], "includesElement__abundance_crust": [90.0, 0.001], "includesElement__atomic_number": [37, 52], "includesElement__atomic_radius": [235.0, 140.0], "includesElement__atomic_radius_rahm": [240.0, 242.0], "includesElement__atomic_volume": [55.9, 20.5], "includesElement__atomic_weight": [85.4678, 127.6], "includesElement__covalent_radius_cordero": [220.0, 138.0], "includesElement__covalent_radius_pyykko": [210.0, 136.0], "includesElement__covalent_radius_pyykko_double": [202.0, 128.0], "includesElement__density": [1.53, 6.232], "includesElement__dipole_polarizability": [319.8, 38.0], "includesElement__dipole_polarizability_unc": [0.3, 4.0], "includesElement__discovery_year": [1861, 1782], "includesElement__electron_affinity": [0.48592, 1.970876], "includesElement__electronegativity_allred-rochow": [4.988662e-05, 0.0003757569], "includesElement__electronegativity_cottrell-sutton": [0.1023533, 0.2260596], "includesElement__electronegativity_ghosh": [0.104686, 0.2056992], "includesElement__electronegativity_gordy": [0.01047619, 0.05110294], "includesElement__electronegativity_mulliken": [2.331524, 5.490268], "includesElement__electronegativity_nagle": [0.1462314, 0.5404919], "includesElement__electronegativity_pauling": [0.82, 2.1], "includesElement__electronegativity_sanderson": [0.1764136, 0.8622506], "includesElement__en_ghosh": [0.104686, 0.2056992], "includesElement__en_pauling": [0.82, 2.1], "includesElement__evaporation_heat": [75.8, 49.8], "includesElement__fusion_heat": [2.2, 17.91], "includesElement__glawe_number": [9, 94], "includesElement__group_id": [1, 16], "includesElement__heat_of_formation": [80.9, 196.6], "includesElement__is_radioactive": [false], "includesElement__lattice_constant": [5.59, 4.45], "includesElement__mendeleev_number": [4, 102], "includesElement__molar_heat_capacity": [31.06, 25.73], "includesElement__period": [5], "includesElement__pettifor_number": [9, 92], "includesElement__specific_heat_capacity": [0.363, 0.202], "includesElement__vdw_radius": [303.0, 206.0], "includesElement__vdw_radius_alvarez": [321.0, 199.0], "includesElement__vdw_radius_mm3": [325.0, 244.0], "includesElement__vdw_radius_uff": [411.4, 447.0], "includesElement__abundance_sea": [0.12], "includesElement__atomic_weight_uncertainty": [0.0003, 0.03], "includesElement__c6_gb": [4660.0, 471.0], "includesElement__covalent_radius_bragg": [225.0, 133.0], "includesElement__electronegativity_allen": [4.177, 12.76], "includesElement__en_allen": [4.177, 12.76], "includesElement__metallic_radius": [216.0, 137.0], "includesElement__metallic_radius_c12": [248.0, 160.0], "includesElement__thermal_conductivity": [58.2, 14.3], "includesElement__vdw_radius_batsanov": [290.0, 210.0], "includesElement__c6": [4769.0, 445.0], "includesElement__vdw_radius_truhlar": [303.0], "includesElement__covalent_radius_pyykko_triple": [121.0], "includesElement__vdw_radius_dreiding": [423.0], "includesElement__vdw_radius_bondi": [206.0], "formula": ["Rb2Te1"], "spacegroup": ["225"], "thermalConductivity": [0.705985], "icsd": ["182743"], "band_gap": [1.8766], "density": [3.158986], "density_atomic": [52.30897], "deprecated": [false], "efermi": [-0.08341552], "energy_above_hull": [0.0], "energy_per_atom": [-2.839232], "formation_energy_per_atom": [-1.137774], "homogeneous_poisson": [0.281], "is_gap_direct": [false], "is_magnetic": [false], "is_metal": [false], "is_stable": [true], "nelements": [2], "nsites": [3], "num_magnetic_sites": [0], "num_unique_magnetic_sites": [0], "theoretical": [false], "total_magnetization": [0.0], "total_magnetization_normalized_formula_units": [0.0], "total_magnetization_normalized_vol": [0.0], "uncorrected_energy_per_atom": [-18.95717], "universal_anisotropy": [0.009], "volume": [156.9269], "cbm": [1.7575], "e_electronic": [3.441253], "e_ionic": [2.79367], "e_total": [6.234922], "equilibrium_reaction_energy_per_atom": [-0.4386241], "n": [1.855061], "vbm": [-0.1191]}