{"includesElement": ["", "Ba", "Sn"], "includesElement___series_id": [4, 7], "includesElement__abundance_crust": [425.0, 2.3], "includesElement__atomic_number": [56, 50], "includesElement__atomic_radius": [215.0, 145.0], "includesElement__atomic_radius_rahm": [293.0, 248.0], "includesElement__atomic_volume": [39.0, 16.3], "includesElement__atomic_weight": [137.327, 118.71], "includesElement__covalent_radius_cordero": [215.0, 139.0], "includesElement__covalent_radius_pyykko": [196.0, 140.0], "includesElement__covalent_radius_pyykko_double": [161.0, 130.0], "includesElement__covalent_radius_pyykko_triple": [149.0, 132.0], "includesElement__density": [3.62, 7.287], "includesElement__dipole_polarizability": [272.0, 53.0], "includesElement__dipole_polarizability_unc": [10.0, 6.0], "includesElement__discovery_year": [1808], "includesElement__electron_affinity": [0.14462, 1.112067], "includesElement__electronegativity_allred-rochow": [7.418784e-05, 0.0002882653], "includesElement__electronegativity_cottrell-sutton": [0.1205853, 0.2008909], "includesElement__electronegativity_ghosh": [0.1586786, 0.178052], "includesElement__electronegativity_gordy": [0.01454082, 0.04035714], "includesElement__electronegativity_mulliken": [2.678142, 4.227992], "includesElement__electronegativity_nagle": [0.1944556, 0.4225986], "includesElement__electronegativity_pauling": [0.89, 1.96], "includesElement__electronegativity_sanderson": [0.3032951, 0.7622797], "includesElement__en_ghosh": [0.1586786, 0.178052], "includesElement__en_pauling": [0.89, 1.96], "includesElement__evaporation_heat": [142.0, 296.0], "includesElement__fusion_heat": [7.66, 7.07], "includesElement__glawe_number": [14, 83], "includesElement__group_id": [2, 14], "includesElement__heat_of_formation": [179.1, 301.2], "includesElement__is_radioactive": [false], "includesElement__lattice_constant": [5.02, 5.82], "includesElement__mendeleev_number": [9, 90], "includesElement__molar_heat_capacity": [28.07, 26.99], "includesElement__period": [6, 5], "includesElement__pettifor_number": [14, 83], "includesElement__specific_heat_capacity": [0.204, 0.227], "includesElement__vdw_radius": [268.0, 217.0], "includesElement__vdw_radius_alvarez": [303.0, 242.0], "includesElement__vdw_radius_mm3": [307.0, 259.0], "includesElement__vdw_radius_uff": [370.3, 439.2], "includesElement__abundance_sea": [0.013, 4e-06], "includesElement__atomic_weight_uncertainty": [0.007], "includesElement__c6_gb": [5540.0, 715.0], "includesElement__covalent_radius_bragg": [210.0, 140.0], "includesElement__electronegativity_allen": [5.211, 10.79], "includesElement__en_allen": [5.211, 10.79], "includesElement__metallic_radius": [198.0, 142.0], "includesElement__metallic_radius_c12": [222.0, 163.0], "includesElement__vdw_radius_batsanov": [270.0, 225.0], "includesElement__vdw_radius_truhlar": [268.0], "includesElement__thermal_conductivity": [66.8], "includesElement__c6": [659.0], "includesElement__vdw_radius_dreiding": [447.0], "includesElement__vdw_radius_bondi": [217.0], "formula": ["Ba8Sn4"], "spacegroup": ["62"], "thermalConductivity": [0.722268], "icsd": ["416562"], "band_gap": [0.0], "density": [4.848399], "density_atomic": [44.90804], "deprecated": [false], "efermi": [3.06096], "energy_above_hull": [0.0], "energy_per_atom": [-3.223653], "formation_energy_per_atom": [-0.6078128], "is_gap_direct": [false], "is_magnetic": [false], "is_metal": [true], "is_stable": [true], "nelements": [2], "nsites": [12], "num_magnetic_sites": [0], "num_unique_magnetic_sites": [0], "theoretical": [false], "total_magnetization": [0.0], "total_magnetization_normalized_formula_units": [0.0], "total_magnetization_normalized_vol": [0.0], "uncorrected_energy_per_atom": [-26.61824], "volume": [538.8964], "equilibrium_reaction_energy_per_atom": [-0.1393835]}