{"includesElement": ["", "Be", "Ti"], "includesElement___series_id": [4, 8], "includesElement__abundance_crust": [2.8, 5650.0], "includesElement__atomic_number": [4, 22], "includesElement__atomic_radius": [105.0, 140.0], "includesElement__atomic_radius_rahm": [219.0, 257.0], "includesElement__atomic_volume": [5.0, 10.6], "includesElement__atomic_weight": [9.012183, 47.867], "includesElement__covalent_radius_cordero": [96.0, 160.0], "includesElement__covalent_radius_pyykko": [102.0, 136.0], "includesElement__covalent_radius_pyykko_double": [90.0, 117.0], "includesElement__covalent_radius_pyykko_triple": [85.0, 108.0], "includesElement__density": [1.85, 4.506], "includesElement__dipole_polarizability": [37.74, 100.0], "includesElement__dipole_polarizability_unc": [0.03, 10.0], "includesElement__discovery_year": [1798, 1791], "includesElement__electron_affinity": [-2.4, 0.079], "includesElement__electronegativity_allred-rochow": [0.0001874279, 0.0001703071], "includesElement__electronegativity_cottrell-sutton": [0.1382666, 0.1521899], "includesElement__electronegativity_ghosh": [0.144986, 0.1233637], "includesElement__electronegativity_gordy": [0.01911765, 0.02316176], "includesElement__electronegativity_mulliken": [3.461349, 3.45356], "includesElement__electronegativity_nagle": [0.3756148, 0.3419952], "includesElement__electronegativity_pauling": [1.57, 1.54], "includesElement__electronegativity_sanderson": [0.1268473, 0.4055462], "includesElement__en_ghosh": [0.144986, 0.1233637], "includesElement__en_pauling": [1.57, 1.54], "includesElement__evaporation_heat": [309.0, 422.6], "includesElement__fusion_heat": [12.21, 18.8], "includesElement__glawe_number": [77, 51], "includesElement__group_id": [2, 4], "includesElement__heat_of_formation": [324.0, 473.0], "includesElement__is_radioactive": [false], "includesElement__lattice_constant": [2.29, 2.95], "includesElement__mendeleev_number": [75, 43], "includesElement__molar_heat_capacity": [16.443, 25.06], "includesElement__period": [2, 4], "includesElement__pettifor_number": [77, 51], "includesElement__specific_heat_capacity": [1.825, 0.523], "includesElement__vdw_radius": [153.0, 211.0], "includesElement__vdw_radius_alvarez": [198.0, 246.0], "includesElement__vdw_radius_mm3": [223.0, 239.0], "includesElement__vdw_radius_uff": [274.5, 317.5], "includesElement__abundance_sea": [5.6e-06, 0.001], "includesElement__atomic_weight_uncertainty": [5e-07, 0.001], "includesElement__c6_gb": [214.0, 1200.0], "includesElement__covalent_radius_bragg": [115.0, 140.0], "includesElement__electronegativity_allen": [9.323, 8.17], "includesElement__en_allen": [9.323, 8.17], "includesElement__metallic_radius": [89.0, 132.0], "includesElement__metallic_radius_c12": [112.0, 147.0], "includesElement__thermal_conductivity": [201.0, 21.9], "includesElement__vdw_radius_batsanov": [190.0, 215.0], "includesElement__c6": [227.0, 1044.0], "includesElement__is_monoisotopic": [true], "includesElement__vdw_radius_truhlar": [153.0], "includesElement__gas_basicity": [853.7], "includesElement__proton_affinity": [876.0], "formula": ["Be4Ti2"], "spacegroup": ["227"], "thermalConductivity": [28.8864], "icsd": ["58744"], "band_gap": [0.0], "density": [3.280738], "density_atomic": [11.11693], "deprecated": [false], "efermi": [4.727713], "energy_above_hull": [0.0], "energy_per_atom": [-5.318555], "formation_energy_per_atom": [-0.1937827], "homogeneous_poisson": [0.162], "is_gap_direct": [false], "is_magnetic": [true], "is_metal": [true], "is_stable": [true], "nelements": [2], "nsites": [6], "num_magnetic_sites": [2], "num_unique_magnetic_sites": [1], "theoretical": [false], "total_magnetization": [2.471007], "total_magnetization_normalized_formula_units": [1.235503], "total_magnetization_normalized_vol": [0.03704571], "uncorrected_energy_per_atom": [-7.452604], "universal_anisotropy": [0.059], "volume": [66.70157], "equilibrium_reaction_energy_per_atom": [-0.01173743]}