{"includesElement": ["", "Al", "Sr"], "includesElement___series_id": [7, 4], "includesElement__abundance_crust": [82300.0, 370.0], "includesElement__atomic_number": [13, 38], "includesElement__atomic_radius": [125.0, 200.0], "includesElement__atomic_radius_rahm": [239.0, 279.0], "includesElement__atomic_volume": [10.0, 33.7], "includesElement__atomic_weight": [26.98154, 87.62], "includesElement__covalent_radius_cordero": [121.0, 195.0], "includesElement__covalent_radius_pyykko": [126.0, 185.0], "includesElement__covalent_radius_pyykko_double": [113.0, 157.0], "includesElement__covalent_radius_pyykko_triple": [111.0, 139.0], "includesElement__density": [2.7, 2.64], "includesElement__dipole_polarizability": [57.8, 197.2], "includesElement__dipole_polarizability_unc": [1.0, 0.2], "includesElement__discovery_year": [1825, 1790], "includesElement__electron_affinity": [0.43283, 0.048], "includesElement__electronegativity_allred-rochow": [0.0002204586, 8.327246e-05], "includesElement__electronegativity_cottrell-sutton": [0.1666667, 0.1241185], "includesElement__electronegativity_ghosh": [0.150078, 0.1185082], "includesElement__electronegativity_gordy": [0.02777778, 0.01540541], "includesElement__electronegativity_mulliken": [3.209299, 2.871434], "includesElement__electronegativity_nagle": [0.3730192, 0.2164584], "includesElement__electronegativity_pauling": [1.61, 0.95], "includesElement__electronegativity_sanderson": [0.2360927, 0.2631786], "includesElement__en_ghosh": [0.150078, 0.1185082], "includesElement__en_pauling": [1.61, 0.95], "includesElement__evaporation_heat": [284.1, 144.0], "includesElement__fusion_heat": [10.75, 9.2], "includesElement__glawe_number": [78, 15], "includesElement__group_id": [13, 2], "includesElement__heat_of_formation": [330.9, 164.0], "includesElement__is_radioactive": [false], "includesElement__lattice_constant": [4.05, 6.08], "includesElement__mendeleev_number": [82, 8], "includesElement__molar_heat_capacity": [24.2, 26.79], "includesElement__period": [3, 5], "includesElement__pettifor_number": [80, 15], "includesElement__specific_heat_capacity": [0.897, 0.306], "includesElement__vdw_radius": [184.0, 249.0], "includesElement__vdw_radius_alvarez": [225.0, 284.0], "includesElement__vdw_radius_mm3": [236.0, 300.0], "includesElement__vdw_radius_uff": [449.9, 364.1], "includesElement__abundance_sea": [0.002, 7.9], "includesElement__atomic_weight_uncertainty": [7e-07, 0.01], "includesElement__c6_gb": [520.0, 3230.0], "includesElement__covalent_radius_bragg": [135.0, 195.0], "includesElement__electronegativity_allen": [9.539, 5.695], "includesElement__en_allen": [9.539, 5.695], "includesElement__metallic_radius": [125.0, 191.0], "includesElement__metallic_radius_c12": [143.0, 215.0], "includesElement__thermal_conductivity": [237.0], "includesElement__vdw_radius_batsanov": [210.0, 255.0], "includesElement__c6": [528.0, 3175.0], "includesElement__is_monoisotopic": [true], "includesElement__vdw_radius_dreiding": [439.0], "includesElement__vdw_radius_truhlar": [184.0, 249.0], "formula": ["Al4Sr2"], "spacegroup": ["227"], "thermalConductivity": [5.50233], "icsd": ["181800"], "band_gap": [0.0], "density": [3.340455], "density_atomic": [23.4603], "deprecated": [false], "efermi": [4.783875], "energy_above_hull": [0.01357195], "energy_per_atom": [-9.808123], "formation_energy_per_atom": [-0.2715035], "homogeneous_poisson": [0.224], "is_gap_direct": [false], "is_magnetic": [false], "is_metal": [true], "is_stable": [false], "nelements": [2], "nsites": [6], "num_magnetic_sites": [0], "num_unique_magnetic_sites": [0], "theoretical": [false], "total_magnetization": [6e-07], "total_magnetization_normalized_formula_units": [3e-07], "total_magnetization_normalized_vol": [4.26252e-09], "uncorrected_energy_per_atom": [-9.808123], "universal_anisotropy": [0.031], "volume": [140.7618]}