{"includesElement": ["", "Li", "N"], "includesElement___series_id": [3, 1], "includesElement__abundance_crust": [20.0, 19.0], "includesElement__atomic_number": [3, 7], "includesElement__atomic_radius": [145.0, 65.0], "includesElement__atomic_radius_rahm": [220.0, 179.0], "includesElement__atomic_volume": [13.1, 17.3], "includesElement__atomic_weight": [6.94, 14.007], "includesElement__covalent_radius_cordero": [128.0, 71.0], "includesElement__covalent_radius_pyykko": [133.0, 71.0], "includesElement__covalent_radius_pyykko_double": [124.0, 60.0], "includesElement__density": [0.534, 0.001145], "includesElement__dipole_polarizability": [164.1125, 7.4], "includesElement__dipole_polarizability_unc": [0.0005, 0.2], "includesElement__discovery_year": [1817, 1772], "includesElement__electron_affinity": [0.618049, -1.4], "includesElement__electronegativity_allred-rochow": [7.3492e-05, 0.000773656], "includesElement__electronegativity_cottrell-sutton": [0.09886575, 0.2343706], "includesElement__electronegativity_ghosh": [0.105093, 0.26493], "includesElement__electronegativity_gordy": [0.009774436, 0.05492958], "includesElement__electronegativity_mulliken": [3.004882, 6.567065], "includesElement__electronegativity_nagle": [0.1826499, 0.8774979], "includesElement__electronegativity_pauling": [0.98, 3.04], "includesElement__electronegativity_sanderson": [0.04886793, 0.577482], "includesElement__en_ghosh": [0.105093, 0.26493], "includesElement__en_pauling": [0.98, 3.04], "includesElement__evaporation_heat": [148.0], "includesElement__fusion_heat": [2.89], "includesElement__glawe_number": [12, 88], "includesElement__group_id": [1, 15], "includesElement__heat_of_formation": [159.3, 472.44], "includesElement__is_radioactive": [false], "includesElement__lattice_constant": [3.49, 4.039], "includesElement__mendeleev_number": [1, 93], "includesElement__molar_heat_capacity": [24.86, 29.124], "includesElement__period": [2], "includesElement__pettifor_number": [12, 100], "includesElement__specific_heat_capacity": [3.582, 1.04], "includesElement__vdw_radius": [182.0, 155.0], "includesElement__vdw_radius_alvarez": [212.0, 166.0], "includesElement__vdw_radius_mm3": [255.0, 193.0], "includesElement__vdw_radius_uff": [245.1, 366.0], "includesElement__abundance_sea": [0.18, 0.5], "includesElement__c6_gb": [1410.0, 25.7], "includesElement__covalent_radius_bragg": [150.0, 65.0], "includesElement__electronegativity_allen": [5.392, 18.13], "includesElement__en_allen": [5.392, 18.13], "includesElement__metallic_radius": [123.0], "includesElement__metallic_radius_c12": [155.0, 53.0], "includesElement__thermal_conductivity": [84.8, 0.026], "includesElement__vdw_radius_batsanov": [220.0, 160.0], "includesElement__c6": [1392.0, 24.2], "includesElement__vdw_radius_bondi": [181.0, 155.0], "includesElement__covalent_radius_pyykko_triple": [54.0], "includesElement__vdw_radius_dreiding": [366.21], "includesElement__gas_basicity": [318.7], "includesElement__proton_affinity": [342.2], "includesElement__vdw_radius_rt": [164.0], "formula": ["Li6N2"], "spacegroup": ["194"], "thermalConductivity": [6.20457], "icsd": ["156889"], "band_gap": [1.218], "density": [1.718165], "density_atomic": [8.415387], "deprecated": [false], "efermi": [1.379041], "energy_above_hull": [0.003927161], "energy_per_atom": [-4.550792], "formation_energy_per_atom": [-0.4785743], "homogeneous_poisson": [0.221], "is_gap_direct": [false], "is_magnetic": [false], "is_metal": [false], "is_stable": [false], "nelements": [2], "nsites": [8], "num_magnetic_sites": [0], "num_unique_magnetic_sites": [0], "theoretical": [false], "total_magnetization": [0.0], "total_magnetization_normalized_formula_units": [0.0], "total_magnetization_normalized_vol": [0.0], "uncorrected_energy_per_atom": [-4.550792], "universal_anisotropy": [0.365], "volume": [67.3231], "cbm": [2.5753], "e_electronic": [5.577381], "e_ionic": [7.55143], "e_total": [13.12881], "n": [2.361648], "vbm": [1.3573]}