{"includesElement": ["", "Pb", "Rh"], "includesElement___series_id": [7, 8], "includesElement__abundance_crust": [14.0, 0.001], "includesElement__atomic_number": [82, 45], "includesElement__atomic_radius": [180.0, 135.0], "includesElement__atomic_radius_rahm": [249.0, 233.0], "includesElement__atomic_volume": [18.3, 8.3], "includesElement__atomic_weight": [207.2, 102.9055], "includesElement__covalent_radius_cordero": [146.0, 142.0], "includesElement__covalent_radius_pyykko": [144.0, 125.0], "includesElement__covalent_radius_pyykko_double": [135.0, 110.0], "includesElement__covalent_radius_pyykko_triple": [137.0, 106.0], "includesElement__density": [11.3, 12.4], "includesElement__dipole_polarizability": [47.0, 66.0], "includesElement__dipole_polarizability_unc": [3.0, 10.0], "includesElement__electron_affinity": [0.3567432, 1.137], "includesElement__electronegativity_allred-rochow": [0.000272473, 0.0002176], "includesElement__electronegativity_cottrell-sutton": [0.1980811, 0.1649242], "includesElement__electronegativity_ghosh": [0.177911, 0.1408379], "includesElement__electronegativity_gordy": [0.03923611, 0.0272], "includesElement__electronegativity_mulliken": [3.886711, 4.29795], "includesElement__electronegativity_nagle": [0.4398663, 0.5147142], "includesElement__electronegativity_pauling": [1.8, 2.28], "includesElement__electronegativity_sanderson": [0.9313226, 0.9761915], "includesElement__en_ghosh": [0.177911, 0.1408379], "includesElement__en_pauling": [1.8, 2.28], "includesElement__evaporation_heat": [177.8, 494.0], "includesElement__fusion_heat": [4.77, 21.8], "includesElement__glawe_number": [82, 63], "includesElement__group_id": [14, 9], "includesElement__heat_of_formation": [195.2, 556.0], "includesElement__is_radioactive": [false], "includesElement__lattice_constant": [4.95, 3.8], "includesElement__mendeleev_number": [91, 64], "includesElement__molar_heat_capacity": [26.84, 24.98], "includesElement__period": [6, 5], "includesElement__pettifor_number": [82, 66], "includesElement__specific_heat_capacity": [0.13, 0.243], "includesElement__vdw_radius": [202.0, 210.0], "includesElement__vdw_radius_alvarez": [260.0, 244.0], "includesElement__vdw_radius_mm3": [274.0, 234.0], "includesElement__vdw_radius_uff": [429.7, 292.9], "includesElement__abundance_sea": [3e-05], "includesElement__atomic_weight_uncertainty": [0.1, 2e-05], "includesElement__c6_gb": [534.0, 708.0], "includesElement__electronegativity_allen": [10.97, 9.259], "includesElement__en_allen": [10.97, 9.259], "includesElement__metallic_radius": [150.0, 125.0], "includesElement__metallic_radius_c12": [170.0, 134.0], "includesElement__thermal_conductivity": [35.3, 150.0], "includesElement__vdw_radius_batsanov": [230.0, 200.0], "includesElement__vdw_radius_bondi": [202.0], "includesElement__discovery_year": [1803], "includesElement__is_monoisotopic": [true], "includesElement__gas_basicity": [745.4], "includesElement__proton_affinity": [768.0], "formula": ["Pb3Rh3"], "spacegroup": ["191"], "thermalConductivity": [2.65614], "icsd": ["105607"], "band_gap": [0.0], "density": [12.23294], "density_atomic": [21.04737], "deprecated": [false], "efermi": [6.865176], "energy_above_hull": [0.0], "energy_per_atom": [-40.34737], "formation_energy_per_atom": [-0.1366919], "is_gap_direct": [false], "is_magnetic": [false], "is_metal": [true], "is_stable": [true], "nelements": [2], "nsites": [6], "num_magnetic_sites": [0], "num_unique_magnetic_sites": [0], "theoretical": [false], "total_magnetization": [4e-07], "total_magnetization_normalized_formula_units": [1.333333e-07], "total_magnetization_normalized_vol": [3.167458e-09], "uncorrected_energy_per_atom": [-40.34737], "volume": [126.2842], "equilibrium_reaction_energy_per_atom": [-0.05928799]}