{"includesElement": ["", "Be", "N"], "includesElement___series_id": [4, 1], "includesElement__abundance_crust": [2.8, 19.0], "includesElement__atomic_number": [4, 7], "includesElement__atomic_radius": [105.0, 65.0], "includesElement__atomic_radius_rahm": [219.0, 179.0], "includesElement__atomic_volume": [5.0, 17.3], "includesElement__atomic_weight": [9.012183, 14.007], "includesElement__covalent_radius_cordero": [96.0, 71.0], "includesElement__covalent_radius_pyykko": [102.0, 71.0], "includesElement__covalent_radius_pyykko_double": [90.0, 60.0], "includesElement__covalent_radius_pyykko_triple": [85.0, 54.0], "includesElement__density": [1.85, 0.001145], "includesElement__dipole_polarizability": [37.74, 7.4], "includesElement__dipole_polarizability_unc": [0.03, 0.2], "includesElement__discovery_year": [1798, 1772], "includesElement__electron_affinity": [-2.4, -1.4], "includesElement__electronegativity_allred-rochow": [0.0001874279, 0.000773656], "includesElement__electronegativity_cottrell-sutton": [0.1382666, 0.2343706], "includesElement__electronegativity_ghosh": [0.144986, 0.26493], "includesElement__electronegativity_gordy": [0.01911765, 0.05492958], "includesElement__electronegativity_mulliken": [3.461349, 6.567065], "includesElement__electronegativity_nagle": [0.3756148, 0.8774979], "includesElement__electronegativity_pauling": [1.57, 3.04], "includesElement__electronegativity_sanderson": [0.1268473, 0.577482], "includesElement__en_ghosh": [0.144986, 0.26493], "includesElement__en_pauling": [1.57, 3.04], "includesElement__evaporation_heat": [309.0], "includesElement__fusion_heat": [12.21], "includesElement__glawe_number": [77, 88], "includesElement__group_id": [2, 15], "includesElement__heat_of_formation": [324.0, 472.44], "includesElement__is_radioactive": [false], "includesElement__lattice_constant": [2.29, 4.039], "includesElement__mendeleev_number": [75, 93], "includesElement__molar_heat_capacity": [16.443, 29.124], "includesElement__period": [2], "includesElement__pettifor_number": [77, 100], "includesElement__specific_heat_capacity": [1.825, 1.04], "includesElement__vdw_radius": [153.0, 155.0], "includesElement__vdw_radius_alvarez": [198.0, 166.0], "includesElement__vdw_radius_mm3": [223.0, 193.0], "includesElement__vdw_radius_uff": [274.5, 366.0], "includesElement__abundance_sea": [5.6e-06, 0.5], "includesElement__atomic_weight_uncertainty": [5e-07], "includesElement__c6_gb": [214.0, 25.7], "includesElement__covalent_radius_bragg": [115.0, 65.0], "includesElement__electronegativity_allen": [9.323, 18.13], "includesElement__en_allen": [9.323, 18.13], "includesElement__metallic_radius": [89.0], "includesElement__metallic_radius_c12": [112.0, 53.0], "includesElement__thermal_conductivity": [201.0, 0.026], "includesElement__vdw_radius_batsanov": [190.0, 160.0], "includesElement__c6": [227.0, 24.2], "includesElement__is_monoisotopic": [true], "includesElement__vdw_radius_truhlar": [153.0], "includesElement__vdw_radius_dreiding": [366.21], "includesElement__gas_basicity": [318.7], "includesElement__proton_affinity": [342.2], "includesElement__vdw_radius_bondi": [155.0], "includesElement__vdw_radius_rt": [164.0], "formula": ["Be24N16"], "spacegroup": ["206"], "thermalConductivity": [16.1629], "icsd": ["412667"], "band_gap": [3.3145], "density": [2.724295], "density_atomic": [6.710916], "deprecated": [false], "efermi": [4.573727], "energy_above_hull": [0.0], "energy_per_atom": [-6.796312], "formation_energy_per_atom": [-1.217353], "homogeneous_poisson": [0.164], "is_gap_direct": [true], "is_magnetic": [false], "is_metal": [false], "is_stable": [true], "nelements": [2], "nsites": [40], "num_magnetic_sites": [0], "num_unique_magnetic_sites": [0], "theoretical": [false], "total_magnetization": [0.0], "total_magnetization_normalized_formula_units": [0.0], "total_magnetization_normalized_vol": [0.0], "uncorrected_energy_per_atom": [-7.5033], "universal_anisotropy": [0.031], "volume": [268.4366], "cbm": [7.7438], "equilibrium_reaction_energy_per_atom": [-1.217353], "vbm": [4.4293]}