{"includesElement": ["", "Al", "N", "Hf"], "includesElement___series_id": [7, 1, 8], "includesElement__abundance_crust": [82300.0, 19.0, 3.0], "includesElement__atomic_number": [13, 7, 72], "includesElement__atomic_radius": [125.0, 65.0, 155.0], "includesElement__atomic_radius_rahm": [239.0, 179.0, 264.0], "includesElement__atomic_volume": [10.0, 17.3, 13.6], "includesElement__atomic_weight": [26.98154, 14.007, 178.49], "includesElement__covalent_radius_cordero": [121.0, 71.0, 175.0], "includesElement__covalent_radius_pyykko": [126.0, 71.0, 152.0], "includesElement__covalent_radius_pyykko_double": [113.0, 60.0, 128.0], "includesElement__covalent_radius_pyykko_triple": [111.0, 54.0, 122.0], "includesElement__density": [2.7, 0.001145, 13.3], "includesElement__dipole_polarizability": [57.8, 7.4, 103.0], "includesElement__dipole_polarizability_unc": [1.0, 0.2, 6.0], "includesElement__discovery_year": [1825, 1772, 1923], "includesElement__electron_affinity": [0.43283, -1.4, 0.014], "includesElement__electronegativity_allred-rochow": [0.0002204586, 0.000773656, 0.00013634], "includesElement__electronegativity_cottrell-sutton": [0.1666667, 0.2343706, 0.1439572], "includesElement__electronegativity_ghosh": [0.150078, 0.26493, 0.229987], "includesElement__electronegativity_gordy": [0.02777778, 0.05492958, 0.02072368], "includesElement__electronegativity_mulliken": [3.209299, 6.567065, 3.419535], "includesElement__electronegativity_nagle": [0.3730192, 0.8774979, 0.3386421], "includesElement__electronegativity_pauling": [1.61, 3.04, 1.3], "includesElement__electronegativity_sanderson": [0.2360927, 0.577482, 0.7352125], "includesElement__en_ghosh": [0.150078, 0.26493, 0.229987], "includesElement__en_pauling": [1.61, 3.04, 1.3], "includesElement__evaporation_heat": [284.1, 575.0], "includesElement__fusion_heat": [10.75, 25.1], "includesElement__glawe_number": [78, 88, 50], "includesElement__group_id": [13, 15, 4], "includesElement__heat_of_formation": [330.9, 472.44, 618.4], "includesElement__is_radioactive": [false], "includesElement__lattice_constant": [4.05, 4.039, 3.2], "includesElement__mendeleev_number": [82, 93, 45], "includesElement__molar_heat_capacity": [24.2, 29.124, 25.73], "includesElement__period": [3, 2, 6], "includesElement__pettifor_number": [80, 100, 50], "includesElement__specific_heat_capacity": [0.897, 1.04, 0.144], "includesElement__vdw_radius": [184.0, 155.0, 223.0], "includesElement__vdw_radius_alvarez": [225.0, 166.0, 263.0], "includesElement__vdw_radius_mm3": [236.0, 193.0, 253.0], "includesElement__vdw_radius_uff": [449.9, 366.0, 314.1], "includesElement__abundance_sea": [0.002, 0.5, 7e-06], "includesElement__atomic_weight_uncertainty": [7e-07, 0.02], "includesElement__c6_gb": [520.0, 25.7, 1040.0], "includesElement__covalent_radius_bragg": [135.0, 65.0], "includesElement__electronegativity_allen": [9.539, 18.13, 6.83], "includesElement__en_allen": [9.539, 18.13, 6.83], "includesElement__metallic_radius": [125.0, 144.0], "includesElement__metallic_radius_c12": [143.0, 53.0, 159.0], "includesElement__thermal_conductivity": [237.0, 0.026, 23.0], "includesElement__vdw_radius_batsanov": [210.0, 160.0, 225.0], "includesElement__c6": [528.0, 24.2], "includesElement__is_monoisotopic": [true], "includesElement__vdw_radius_dreiding": [439.0, 366.21], "includesElement__vdw_radius_truhlar": [184.0], "includesElement__gas_basicity": [318.7], "includesElement__proton_affinity": [342.2], "includesElement__vdw_radius_bondi": [155.0], "includesElement__vdw_radius_rt": [164.0], "formula": ["Al6Hf10N2"], "spacegroup": ["193"], "thermalConductivity": [4.03278], "icsd": ["603995"], "band_gap": [0.0], "density": [10.21114], "density_atomic": [17.84128], "deprecated": [false], "efermi": [5.75472], "energy_above_hull": [0.04245816], "energy_per_atom": [-29.11224], "formation_energy_per_atom": [-0.769777], "is_gap_direct": [false], "is_magnetic": [false], "is_metal": [true], "is_stable": [false], "nelements": [3], "nsites": [18], "num_magnetic_sites": [0], "num_unique_magnetic_sites": [0], "theoretical": [false], "total_magnetization": [0.0006131], "total_magnetization_normalized_formula_units": [0.00030655], "total_magnetization_normalized_vol": [1.909118e-06], "uncorrected_energy_per_atom": [-8.380025], "volume": [321.1431]}