{"includesElement": ["", "Cu", "Nb", "Te"], "includesElement___series_id": [8, 5], "includesElement__abundance_crust": [60.0, 20.0, 0.001], "includesElement__atomic_number": [29, 41, 52], "includesElement__atomic_radius": [135.0, 145.0, 140.0], "includesElement__atomic_radius_rahm": [217.0, 251.0, 242.0], "includesElement__atomic_volume": [7.1, 10.8, 20.5], "includesElement__atomic_weight": [63.546, 92.90637, 127.6], "includesElement__covalent_radius_cordero": [132.0, 164.0, 138.0], "includesElement__covalent_radius_pyykko": [112.0, 147.0, 136.0], "includesElement__covalent_radius_pyykko_double": [115.0, 125.0, 128.0], "includesElement__covalent_radius_pyykko_triple": [120.0, 116.0, 121.0], "includesElement__density": [8.96, 8.57, 6.232], "includesElement__dipole_polarizability": [46.5, 98.0, 38.0], "includesElement__dipole_polarizability_unc": [0.5, 8.0, 4.0], "includesElement__electron_affinity": [1.235, 0.917406, 1.970876], "includesElement__electronegativity_allred-rochow": [0.0002949617, 0.0001295756, 0.0003757569], "includesElement__electronegativity_cottrell-sutton": [0.1817573, 0.1380131, 0.2260596], "includesElement__electronegativity_ghosh": [0.1511716, 0.1280782, 0.2056992], "includesElement__electronegativity_gordy": [0.03303571, 0.01904762, 0.05110294], "includesElement__electronegativity_mulliken": [4.48069, 3.838128, 5.490268], "includesElement__electronegativity_nagle": [0.6184623, 0.3708924, 0.5404919], "includesElement__electronegativity_pauling": [1.9, 1.6, 2.1], "includesElement__electronegativity_sanderson": [0.9175542, 0.5561695, 0.8622506], "includesElement__en_ghosh": [0.1511716, 0.1280782, 0.2056992], "includesElement__en_pauling": [1.9, 1.6, 2.1], "includesElement__evaporation_heat": [304.6, 680.0, 49.8], "includesElement__fusion_heat": [13.01, 26.8, 17.91], "includesElement__glawe_number": [68, 53, 94], "includesElement__group_id": [11, 5, 16], "includesElement__heat_of_formation": [337.4, 733.0, 196.6], "includesElement__is_radioactive": [false], "includesElement__lattice_constant": [3.61, 3.3, 4.45], "includesElement__mendeleev_number": [71, 48, 102], "includesElement__molar_heat_capacity": [24.44, 24.6, 25.73], "includesElement__period": [4, 5], "includesElement__pettifor_number": [72, 52, 92], "includesElement__specific_heat_capacity": [0.385, 0.265, 0.202], "includesElement__vdw_radius": [196.0, 218.0, 206.0], "includesElement__vdw_radius_alvarez": [238.0, 256.0, 199.0], "includesElement__vdw_radius_mm3": [226.0, 243.0, 244.0], "includesElement__vdw_radius_uff": [349.5, 316.5, 447.0], "includesElement__abundance_sea": [0.00025, 1e-05], "includesElement__atomic_weight_uncertainty": [0.003, 2e-05, 0.03], "includesElement__c6_gb": [264.0, 1140.0, 471.0], "includesElement__covalent_radius_bragg": [137.0, 133.0], "includesElement__electronegativity_allen": [10.96, 8.34, 12.76], "includesElement__en_allen": [10.96, 8.34, 12.76], "includesElement__metallic_radius": [118.0, 134.0, 137.0], "includesElement__metallic_radius_c12": [128.0, 146.0, 160.0], "includesElement__thermal_conductivity": [401.0, 53.7, 14.3], "includesElement__vdw_radius_batsanov": [200.0, 215.0, 210.0], "includesElement__c6": [253.0, 445.0], "includesElement__gas_basicity": [632.4], "includesElement__proton_affinity": [655.3], "includesElement__discovery_year": [1801, 1782], "includesElement__is_monoisotopic": [true], "includesElement__vdw_radius_dreiding": [423.0], "includesElement__vdw_radius_bondi": [206.0], "formula": ["Cu3Nb1Te4"], "spacegroup": ["215"], "thermalConductivity": [3.30112], "icsd": ["628495"], "band_gap": [0.9169], "density": [6.190207], "density_atomic": [26.6222], "deprecated": [false], "efermi": [4.558816], "energy_above_hull": [0.0], "energy_per_atom": [-4.874049], "formation_energy_per_atom": [-0.50253], "homogeneous_poisson": [0.234], "is_gap_direct": [false], "is_magnetic": [false], "is_metal": [false], "is_stable": [true], "nelements": [3], "nsites": [8], "num_magnetic_sites": [0], "num_unique_magnetic_sites": [0], "theoretical": [false], "total_magnetization": [0.0], "total_magnetization_normalized_formula_units": [0.0], "total_magnetization_normalized_vol": [0.0], "uncorrected_energy_per_atom": [-20.22374], "universal_anisotropy": [0.06], "volume": [212.9776], "cbm": [5.373], "e_electronic": [9.824245], "e_ionic": [0.4564059], "e_total": [10.28065], "equilibrium_reaction_energy_per_atom": [-0.08236225], "n": [3.134365], "vbm": [4.4561], "e_ij_max": [0.05857]}