{"includesElement": ["", "Ga", "O", "Pr"], "includesElement___series_id": [7, 1, 9], "includesElement__abundance_crust": [19.0, 461000.0, 9.2], "includesElement__atomic_number": [31, 8, 59], "includesElement__atomic_radius": [130.0, 60.0, 185.0], "includesElement__atomic_radius_rahm": [233.0, 171.0, 286.0], "includesElement__atomic_volume": [11.8, 14.0, 20.8], "includesElement__atomic_weight": [69.723, 15.999, 140.9077], "includesElement__covalent_radius_cordero": [122.0, 66.0, 203.0], "includesElement__covalent_radius_pyykko": [124.0, 63.0, 176.0], "includesElement__covalent_radius_pyykko_double": [117.0, 57.0, 138.0], "includesElement__covalent_radius_pyykko_triple": [121.0, 53.0, 128.0], "includesElement__density": [5.91, 0.001308, 6.773], "includesElement__dipole_polarizability": [50.0, 5.3, 216.0], "includesElement__dipole_polarizability_unc": [3.0, 0.2, 20.0], "includesElement__discovery_year": [1875, 1774, 1885], "includesElement__electron_affinity": [0.43, 1.461113, 0.962], "includesElement__electronegativity_allred-rochow": [0.0003251821, 0.001146384, 9.200671e-05], "includesElement__electronegativity_cottrell-sutton": [0.2008048, 0.2687419, 0.1272524], "includesElement__electronegativity_ghosh": [0.1723773, 0.304575, 0.17208], "includesElement__electronegativity_gordy": [0.04032258, 0.07222222, 0.01619318], "includesElement__electronegativity_mulliken": [3.214651, 7.539584, 3.2175], "includesElement__electronegativity_nagle": [0.3914868, 1.042218, 0.284996], "includesElement__electronegativity_pauling": [1.81, 3.44, 1.13], "includesElement__electronegativity_sanderson": [0.720541, 0.9416494, 0.428804], "includesElement__en_ghosh": [0.1723773, 0.304575, 0.17208], "includesElement__en_pauling": [1.81, 3.44, 1.13], "includesElement__evaporation_heat": [270.3, 331.0], "includesElement__fusion_heat": [5.59, 11.3], "includesElement__glawe_number": [79, 97, 30], "includesElement__group_id": [13, 16], "includesElement__heat_of_formation": [271.96, 249.229, 356.9], "includesElement__is_radioactive": [false], "includesElement__lattice_constant": [4.51, 6.83, 3.67], "includesElement__mendeleev_number": [83, 99, 17], "includesElement__molar_heat_capacity": [26.03, 29.378, 27.2], "includesElement__period": [4, 2, 6], "includesElement__pettifor_number": [81, 101, 31], "includesElement__specific_heat_capacity": [0.373, 0.918, 0.193], "includesElement__vdw_radius": [187.0, 152.0, 240.0], "includesElement__vdw_radius_alvarez": [232.0, 150.0, 292.0], "includesElement__vdw_radius_mm3": [246.0, 182.0, 273.0], "includesElement__vdw_radius_uff": [438.3, 350.0, 360.6], "includesElement__abundance_sea": [3e-05, 857000.0, 6.4e-07], "includesElement__atomic_weight_uncertainty": [0.001, 2e-05], "includesElement__c6_gb": [456.0, 16.7, 3760.0], "includesElement__electronegativity_allen": [10.39, 21.36], "includesElement__en_allen": [10.39, 21.36], "includesElement__metallic_radius": [125.0], "includesElement__metallic_radius_c12": [140.0], "includesElement__thermal_conductivity": [28.1, 0.027, 12.5], "includesElement__vdw_radius_batsanov": [210.0, 155.0], "includesElement__c6": [498.0, 15.6], "includesElement__vdw_radius_dreiding": [439.0, 340.46], "includesElement__vdw_radius_bondi": [187.0, 152.0], "includesElement__covalent_radius_bragg": [65.0], "includesElement__gas_basicity": [459.6], "includesElement__proton_affinity": [485.2], "includesElement__vdw_radius_rt": [158.0], "includesElement__is_monoisotopic": [true], "formula": ["Ga1O3Pr1"], "spacegroup": ["221"], "thermalConductivity": [5.63216], "icsd": ["76049"], "band_gap": [0.0], "density": [4.403044], "density_atomic": [19.50756], "deprecated": [false], "efermi": [-0.1728113], "energy_above_hull": [1.474403], "energy_per_atom": [-6.122359], "formation_energy_per_atom": [-1.586287], "is_gap_direct": [false], "is_magnetic": [true], "is_metal": [true], "is_stable": [false], "nelements": [3], "nsites": [5], "num_magnetic_sites": [3], "num_unique_magnetic_sites": [1], "theoretical": [false], "total_magnetization": [2.00114], "total_magnetization_normalized_formula_units": [2.00114], "total_magnetization_normalized_vol": [0.02051656], "uncorrected_energy_per_atom": [-5.710159], "volume": [97.53782]}