{"includesElement": ["", "Ti", "Ru"], "includesElement___series_id": [8], "includesElement__abundance_crust": [5650.0, 0.001], "includesElement__atomic_number": [22, 44], "includesElement__atomic_radius": [140.0, 130.0], "includesElement__atomic_radius_rahm": [257.0, 237.0], "includesElement__atomic_volume": [10.6, 8.3], "includesElement__atomic_weight": [47.867, 101.07], "includesElement__covalent_radius_cordero": [160.0, 146.0], "includesElement__covalent_radius_pyykko": [136.0, 125.0], "includesElement__covalent_radius_pyykko_double": [117.0, 114.0], "includesElement__covalent_radius_pyykko_triple": [108.0, 103.0], "includesElement__density": [4.506, 12.1], "includesElement__dipole_polarizability": [100.0, 72.0], "includesElement__dipole_polarizability_unc": [10.0], "includesElement__discovery_year": [1791, 1844], "includesElement__electron_affinity": [0.079, 1.05], "includesElement__electronegativity_allred-rochow": [0.0001703071, 0.000208], "includesElement__electronegativity_cottrell-sutton": [0.1521899, 0.1612452], "includesElement__electronegativity_ghosh": [0.1233637, 0.1376494], "includesElement__electronegativity_gordy": [0.02316176, 0.026], "includesElement__electronegativity_mulliken": [3.45356, 4.20525], "includesElement__electronegativity_nagle": [0.3419952, 0.4807499], "includesElement__electronegativity_pauling": [1.54, 2.2], "includesElement__electronegativity_sanderson": [0.4055462, 0.9579373], "includesElement__en_ghosh": [0.1233637, 0.1376494], "includesElement__en_pauling": [1.54, 2.2], "includesElement__evaporation_heat": [422.6], "includesElement__fusion_heat": [18.8, 25.5], "includesElement__glawe_number": [51, 61], "includesElement__group_id": [4, 8], "includesElement__heat_of_formation": [473.0, 650.6], "includesElement__is_radioactive": [false], "includesElement__lattice_constant": [2.95, 2.7], "includesElement__mendeleev_number": [43, 60], "includesElement__molar_heat_capacity": [25.06, 24.06], "includesElement__period": [4, 5], "includesElement__pettifor_number": [51, 63], "includesElement__specific_heat_capacity": [0.523, 0.238], "includesElement__vdw_radius": [211.0, 213.0], "includesElement__vdw_radius_alvarez": [246.0], "includesElement__vdw_radius_mm3": [239.0, 234.0], "includesElement__vdw_radius_uff": [317.5, 296.3], "includesElement__abundance_sea": [0.001, 7e-07], "includesElement__atomic_weight_uncertainty": [0.001, 0.02], "includesElement__c6_gb": [1200.0, 809.0], "includesElement__covalent_radius_bragg": [140.0], "includesElement__electronegativity_allen": [8.17, 9.1], "includesElement__en_allen": [8.17, 9.1], "includesElement__metallic_radius": [132.0, 125.0], "includesElement__metallic_radius_c12": [147.0, 134.0], "includesElement__thermal_conductivity": [21.9, 117.0], "includesElement__vdw_radius_batsanov": [215.0, 205.0], "includesElement__c6": [1044.0], "includesElement__gas_basicity": [853.7, 751.4], "includesElement__proton_affinity": [876.0, 774.0], "formula": ["Ru3Ti1"], "spacegroup": ["221"], "thermalConductivity": [14.91], "icsd": ["185635"], "band_gap": [0.0], "density": [10.13981], "density_atomic": [14.37347], "deprecated": [false], "efermi": [7.818256], "energy_above_hull": [0.1732399], "energy_per_atom": [-22.54947], "formation_energy_per_atom": [-0.24663], "homogeneous_poisson": [0.322], "is_gap_direct": [false], "is_magnetic": [false], "is_metal": [true], "is_stable": [false], "nelements": [2], "nsites": [4], "num_magnetic_sites": [0], "num_unique_magnetic_sites": [0], "theoretical": [true], "total_magnetization": [0.000256], "total_magnetization_normalized_formula_units": [0.000256], "total_magnetization_normalized_vol": [4.452649e-06], "uncorrected_energy_per_atom": [-9.137991], "universal_anisotropy": [0.748], "volume": [57.49386]}