{"includesElement": ["", "Pd", "Tb"], "includesElement___series_id": [8, 9], "includesElement__abundance_crust": [0.015, 1.2], "includesElement__atomic_number": [46, 65], "includesElement__atomic_radius": [140.0, 175.0], "includesElement__atomic_radius_rahm": [215.0, 276.0], "includesElement__atomic_volume": [8.9, 19.2], "includesElement__atomic_weight": [106.42, 158.9254], "includesElement__covalent_radius_cordero": [139.0, 194.0], "includesElement__covalent_radius_pyykko": [120.0, 168.0], "includesElement__covalent_radius_pyykko_double": [117.0, 135.0], "includesElement__covalent_radius_pyykko_triple": [112.0], "includesElement__density": [12.0, 8.23], "includesElement__dipole_polarizability": [26.14, 170.0], "includesElement__dipole_polarizability_unc": [0.1, 20.0], "includesElement__discovery_year": [1803, 1843], "includesElement__electron_affinity": [0.562, 1.165], "includesElement__electronegativity_allred-rochow": [0.0004756944, 0.0001009779], "includesElement__electronegativity_cottrell-sutton": [0.2389212, 0.130247], "includesElement__electronegativity_ghosh": [0.1440276, 0.198863], "includesElement__electronegativity_gordy": [0.05708333, 0.01696429], "includesElement__electronegativity_mulliken": [4.44943, 3.5144], "includesElement__electronegativity_nagle": [0.7259357, 0.4014652], "includesElement__electronegativity_pauling": [2.2], "includesElement__electronegativity_sanderson": [1.124263, 0.5163695], "includesElement__en_ghosh": [0.1440276, 0.198863], "includesElement__en_pauling": [2.2], "includesElement__evaporation_heat": [372.4, 389.0], "includesElement__fusion_heat": [17.24], "includesElement__glawe_number": [65, 25], "includesElement__group_id": [10], "includesElement__heat_of_formation": [376.6, 388.7], "includesElement__is_radioactive": [false], "includesElement__lattice_constant": [3.89, 3.6], "includesElement__mendeleev_number": [68, 29], "includesElement__molar_heat_capacity": [25.98, 28.91], "includesElement__period": [5, 6], "includesElement__pettifor_number": [69, 26], "includesElement__specific_heat_capacity": [0.246, 0.182], "includesElement__vdw_radius": [210.0, 233.0], "includesElement__vdw_radius_alvarez": [215.0, 279.0], "includesElement__vdw_radius_mm3": [237.0, 270.0], "includesElement__vdw_radius_uff": [289.9, 345.1], "includesElement__atomic_weight_uncertainty": [0.01, 2e-05], "includesElement__c6_gb": [628.0, 2590.0], "includesElement__electronegativity_allen": [9.402], "includesElement__en_allen": [9.402], "includesElement__metallic_radius": [128.0], "includesElement__metallic_radius_c12": [137.0], "includesElement__thermal_conductivity": [71.8, 11.1], "includesElement__vdw_radius_batsanov": [205.0], "includesElement__gas_basicity": [673.4], "includesElement__proton_affinity": [696.0], "includesElement__abundance_sea": [1.4e-07], "includesElement__is_monoisotopic": [true], "formula": ["Pd2Tb2"], "spacegroup": ["63"], "thermalConductivity": [3.01664], "icsd": ["648985"], "band_gap": [0.0], "density": [9.882337], "density_atomic": [22.29312], "deprecated": [false], "efermi": [4.420856], "energy_above_hull": [0.001360316], "energy_per_atom": [-28.04547], "formation_energy_per_atom": [-0.9520247], "homogeneous_poisson": [0.345], "is_gap_direct": [false], "is_magnetic": [false], "is_metal": [true], "is_stable": [false], "nelements": [2], "nsites": [4], "num_magnetic_sites": [0], "num_unique_magnetic_sites": [0], "theoretical": [false], "total_magnetization": [1.4e-06], "total_magnetization_normalized_formula_units": [7e-07], "total_magnetization_normalized_vol": [1.569991e-08], "uncorrected_energy_per_atom": [-28.04547], "universal_anisotropy": [0.402], "volume": [89.1725]}