{"includesElement": ["", "Nb", "Cr"], "includesElement___series_id": [8], "includesElement__abundance_crust": [20.0, 102.0], "includesElement__atomic_number": [41, 24], "includesElement__atomic_radius": [145.0, 140.0], "includesElement__atomic_radius_rahm": [251.0, 233.0], "includesElement__atomic_volume": [10.8, 7.23], "includesElement__atomic_weight": [92.90637, 51.9961], "includesElement__covalent_radius_cordero": [164.0, 139.0], "includesElement__covalent_radius_pyykko": [147.0, 122.0], "includesElement__covalent_radius_pyykko_double": [125.0, 111.0], "includesElement__covalent_radius_pyykko_triple": [116.0, 103.0], "includesElement__density": [8.57, 7.15], "includesElement__dipole_polarizability": [98.0, 83.0], "includesElement__dipole_polarizability_unc": [8.0, 12.0], "includesElement__discovery_year": [1801, 1797], "includesElement__electron_affinity": [0.917406, 0.666], "includesElement__electronegativity_allred-rochow": [0.0001295756, 0.0001981994], "includesElement__electronegativity_cottrell-sutton": [0.1380131, 0.1555003], "includesElement__electronegativity_ghosh": [0.1280782, 0.1313053], "includesElement__electronegativity_gordy": [0.01904762, 0.02418033], "includesElement__electronegativity_mulliken": [3.838128, 3.716255], "includesElement__electronegativity_nagle": [0.3708924, 0.4165729], "includesElement__electronegativity_pauling": [1.6, 1.66], "includesElement__electronegativity_sanderson": [0.5561695, 0.6017723], "includesElement__en_ghosh": [0.1280782, 0.1313053], "includesElement__en_pauling": [1.6, 1.66], "includesElement__evaporation_heat": [680.0, 342.0], "includesElement__fusion_heat": [26.8, 21.0], "includesElement__glawe_number": [53, 55], "includesElement__group_id": [5, 6], "includesElement__heat_of_formation": [733.0, 397.48], "includesElement__is_radioactive": [false], "includesElement__lattice_constant": [3.3, 2.88], "includesElement__mendeleev_number": [48, 51], "includesElement__molar_heat_capacity": [24.6, 23.35], "includesElement__period": [5, 4], "includesElement__pettifor_number": [52, 57], "includesElement__specific_heat_capacity": [0.265, 0.449], "includesElement__vdw_radius": [218.0, 206.0], "includesElement__vdw_radius_alvarez": [256.0, 245.0], "includesElement__vdw_radius_mm3": [243.0, 225.0], "includesElement__vdw_radius_uff": [316.5, 302.3], "includesElement__abundance_sea": [1e-05, 0.0003], "includesElement__atomic_weight_uncertainty": [2e-05, 0.0006], "includesElement__c6_gb": [1140.0, 709.0], "includesElement__electronegativity_allen": [8.34, 9.77], "includesElement__en_allen": [8.34, 9.77], "includesElement__metallic_radius": [134.0, 119.0], "includesElement__metallic_radius_c12": [146.0, 128.0], "includesElement__thermal_conductivity": [53.7, 93.9], "includesElement__vdw_radius_batsanov": [215.0, 205.0], "includesElement__is_monoisotopic": [true], "includesElement__covalent_radius_bragg": [140.0], "includesElement__c6": [602.0], "includesElement__gas_basicity": [768.4], "includesElement__proton_affinity": [791.3], "formula": ["Cr3Nb1"], "spacegroup": ["221"], "thermalConductivity": [9.69749], "icsd": ["188235"], "band_gap": [0.0], "density": [7.49075], "density_atomic": [13.79366], "deprecated": [false], "efermi": [5.801683], "energy_above_hull": [0.5430221], "energy_per_atom": [-16.9455], "formation_energy_per_atom": [0.5430221], "is_gap_direct": [false], "is_magnetic": [true], "is_metal": [true], "is_stable": [false], "nelements": [2], "nsites": [4], "num_magnetic_sites": [3], "num_unique_magnetic_sites": [1], "theoretical": [true], "total_magnetization": [0.4225454], "total_magnetization_normalized_formula_units": [0.4225454], "total_magnetization_normalized_vol": [0.007658328], "uncorrected_energy_per_atom": [-9.24419], "volume": [55.17462]}