{"includesElement": ["", "F", "Xe"], "includesElement___series_id": [6, 2], "includesElement__abundance_crust": [585.0, 3e-05], "includesElement__atomic_number": [9, 54], "includesElement__atomic_radius": [50.0], "includesElement__atomic_radius_rahm": [163.0, 232.0], "includesElement__atomic_volume": [17.1, 42.9], "includesElement__atomic_weight": [18.9984, 131.293], "includesElement__covalent_radius_cordero": [57.0, 140.0], "includesElement__covalent_radius_pyykko": [64.0, 131.0], "includesElement__covalent_radius_pyykko_double": [59.0, 135.0], "includesElement__covalent_radius_pyykko_triple": [53.0, 122.0], "includesElement__density": [0.001553, 0.005366], "includesElement__dipole_polarizability": [3.74, 27.32], "includesElement__dipole_polarizability_unc": [0.08, 0.2], "includesElement__discovery_year": [1886, 1898], "includesElement__electron_affinity": [3.40119, -0.056], "includesElement__electronegativity_allred-rochow": [0.001269531, 0.0004807412], "includesElement__electronegativity_cottrell-sutton": [0.2850439, 0.2509524], "includesElement__electronegativity_ghosh": [0.344443, 0.2333511], "includesElement__electronegativity_gordy": [0.08125, 0.0629771], "includesElement__electronegativity_mulliken": [10.412, 6.036922], "includesElement__electronegativity_nagle": [1.232373, 0.6640535], "includesElement__electronegativity_pauling": [3.98, 2.6], "includesElement__electronegativity_sanderson": [1.017681, 1.0], "includesElement__en_ghosh": [0.344443, 0.2333511], "includesElement__en_pauling": [3.98, 2.6], "includesElement__evaporation_heat": [6.54, 12.65], "includesElement__fusion_heat": [0.51], "includesElement__glawe_number": [102, 5], "includesElement__group_id": [17, 18], "includesElement__heat_of_formation": [79.335], "includesElement__is_radioactive": [false], "includesElement__mendeleev_number": [106, 116], "includesElement__molar_heat_capacity": [31.304, 20.786], "includesElement__period": [2, 5], "includesElement__pettifor_number": [102, 5], "includesElement__specific_heat_capacity": [0.824, 0.158], "includesElement__vdw_radius": [147.0, 216.0], "includesElement__vdw_radius_alvarez": [146.0, 228.0], "includesElement__vdw_radius_mm3": [171.0, 228.0], "includesElement__vdw_radius_uff": [336.4, 440.4], "includesElement__abundance_sea": [1.3, 5e-05], "includesElement__atomic_weight_uncertainty": [6e-09, 0.006], "includesElement__c6_gb": [10.2, 302.0], "includesElement__covalent_radius_bragg": [67.0], "includesElement__electronegativity_allen": [24.8, 15.27], "includesElement__en_allen": [24.8, 15.27], "includesElement__thermal_conductivity": [0.028, 0.0057], "includesElement__vdw_radius_batsanov": [150.0], "includesElement__c6": [9.52], "includesElement__is_monoisotopic": [true], "includesElement__vdw_radius_dreiding": [347.2], "includesElement__gas_basicity": [315.1, 478.1], "includesElement__proton_affinity": [340.1, 499.6], "includesElement__vdw_radius_bondi": [147.0, 216.0], "includesElement__vdw_radius_rt": [146.0], "includesElement__lattice_constant": [6.2], "formula": ["F2Xe1"], "spacegroup": ["139"], "thermalConductivity": [2.74264], "icsd": ["260950"], "band_gap": [2.6862], "density": [4.396081], "density_atomic": [21.31538], "deprecated": [false], "efermi": [-4.61689], "energy_above_hull": [0.0], "energy_per_atom": [-2.06977], "formation_energy_per_atom": [-0.783393], "is_gap_direct": [false], "is_magnetic": [false], "is_metal": [false], "is_stable": [true], "nelements": [2], "nsites": [3], "num_magnetic_sites": [0], "num_unique_magnetic_sites": [0], "theoretical": [false], "total_magnetization": [0.0], "total_magnetization_normalized_formula_units": [0.0], "total_magnetization_normalized_vol": [0.0], "uncorrected_energy_per_atom": [-10.50228], "volume": [63.94613], "cbm": [-1.9713], "e_electronic": [2.428366], "e_ionic": [0.8937825], "e_total": [3.322149], "equilibrium_reaction_energy_per_atom": [-0.03947974], "n": [1.558322], "vbm": [-4.6575]}