{"includesElement": ["", "Li", "I"], "includesElement___series_id": [3, 6], "includesElement__abundance_crust": [20.0, 0.45], "includesElement__atomic_number": [3, 53], "includesElement__atomic_radius": [145.0, 140.0], "includesElement__atomic_radius_rahm": [220.0, 238.0], "includesElement__atomic_volume": [13.1, 25.7], "includesElement__atomic_weight": [6.94, 126.9045], "includesElement__covalent_radius_cordero": [128.0, 139.0], "includesElement__covalent_radius_pyykko": [133.0], "includesElement__covalent_radius_pyykko_double": [124.0, 129.0], "includesElement__density": [0.534, 4.933], "includesElement__dipole_polarizability": [164.1125, 32.9], "includesElement__dipole_polarizability_unc": [0.0005, 1.3], "includesElement__discovery_year": [1817, 1811], "includesElement__electron_affinity": [0.618049, 3.059037], "includesElement__electronegativity_allred-rochow": [7.3492e-05, 0.0004296455], "includesElement__electronegativity_cottrell-sutton": [0.09886575, 0.2390457], "includesElement__electronegativity_ghosh": [0.105093, 0.2195176], "includesElement__electronegativity_gordy": [0.009774436, 0.05714286], "includesElement__electronegativity_mulliken": [3.004882, 6.755148], "includesElement__electronegativity_nagle": [0.1826499, 0.5969904], "includesElement__electronegativity_pauling": [0.98, 2.66], "includesElement__electronegativity_sanderson": [0.04886793, 0.9386429], "includesElement__en_ghosh": [0.105093, 0.2195176], "includesElement__en_pauling": [0.98, 2.66], "includesElement__evaporation_heat": [148.0, 41.95], "includesElement__fusion_heat": [2.89, 15.52], "includesElement__glawe_number": [12, 99], "includesElement__group_id": [1, 17], "includesElement__heat_of_formation": [159.3, 106.757], "includesElement__is_radioactive": [false], "includesElement__lattice_constant": [3.49, 7.72], "includesElement__mendeleev_number": [1, 109], "includesElement__molar_heat_capacity": [24.86, 54.43], "includesElement__period": [2, 5], "includesElement__pettifor_number": [12, 97], "includesElement__specific_heat_capacity": [3.582, 0.214], "includesElement__vdw_radius": [182.0, 198.0], "includesElement__vdw_radius_alvarez": [212.0, 204.0], "includesElement__vdw_radius_mm3": [255.0, 236.0], "includesElement__vdw_radius_uff": [245.1, 450.0], "includesElement__abundance_sea": [0.18, 0.06], "includesElement__c6_gb": [1410.0, 389.0], "includesElement__covalent_radius_bragg": [150.0, 140.0], "includesElement__electronegativity_allen": [5.392, 13.95], "includesElement__en_allen": [5.392, 13.95], "includesElement__metallic_radius": [123.0], "includesElement__metallic_radius_c12": [155.0, 139.0], "includesElement__thermal_conductivity": [84.8], "includesElement__vdw_radius_batsanov": [220.0, 210.0], "includesElement__c6": [1392.0, 385.0], "includesElement__vdw_radius_bondi": [181.0, 198.0], "includesElement__covalent_radius_pyykko_triple": [125.0], "includesElement__atomic_weight_uncertainty": [3e-05], "includesElement__is_monoisotopic": [true], "includesElement__vdw_radius_dreiding": [415.0], "includesElement__gas_basicity": [583.5], "includesElement__proton_affinity": [608.2], "includesElement__vdw_radius_rt": [203.0], "formula": ["I2Li2"], "spacegroup": ["194"], "thermalConductivity": [0.932258], "icsd": ["44781"], "band_gap": [4.2319], "density": [4.152519], "density_atomic": [26.76154], "deprecated": [false], "efermi": [2.245277], "energy_above_hull": [0.02886215], "energy_per_atom": [-3.10993], "formation_energy_per_atom": [-1.418785], "homogeneous_poisson": [0.273], "is_gap_direct": [false], "is_magnetic": [false], "is_metal": [false], "is_stable": [false], "nelements": [2], "nsites": [4], "num_magnetic_sites": [0], "num_unique_magnetic_sites": [0], "theoretical": [false], "total_magnetization": [0.0], "total_magnetization_normalized_formula_units": [0.0], "total_magnetization_normalized_vol": [0.0], "uncorrected_energy_per_atom": [-14.8478], "universal_anisotropy": [0.304], "volume": [107.0462], "cbm": [6.3247], "vbm": [2.0928]}