{"includesElement": ["", "Pt", "Ta"], "includesElement___series_id": [8], "includesElement__abundance_crust": [0.005, 2.0], "includesElement__atomic_number": [78, 73], "includesElement__atomic_radius": [135.0, 145.0], "includesElement__atomic_radius_rahm": [230.0, 258.0], "includesElement__atomic_volume": [9.1, 10.9], "includesElement__atomic_weight": [195.084, 180.9479], "includesElement__covalent_radius_cordero": [136.0, 170.0], "includesElement__covalent_radius_pyykko": [123.0, 146.0], "includesElement__covalent_radius_pyykko_double": [112.0, 126.0], "includesElement__covalent_radius_pyykko_triple": [110.0, 119.0], "includesElement__density": [21.5, 16.4], "includesElement__dipole_polarizability": [48.0, 74.0], "includesElement__dipole_polarizability_unc": [4.0, 20.0], "includesElement__discovery_year": [1735, 1802], "includesElement__electron_affinity": [2.128, 0.322], "includesElement__electronegativity_allred-rochow": [0.0002346487, 0.0001548133], "includesElement__electronegativity_cottrell-sutton": [0.1698876, 0.1503421], "includesElement__electronegativity_ghosh": [0.25691, 0.234581], "includesElement__electronegativity_gordy": [0.02886179, 0.02260274], "includesElement__electronegativity_mulliken": [5.543415, 3.935785], "includesElement__electronegativity_nagle": [0.5928156, 0.4072985], "includesElement__electronegativity_pauling": [2.2, 1.5], "includesElement__electronegativity_sanderson": [1.45101, 0.8358832], "includesElement__en_ghosh": [0.25691, 0.234581], "includesElement__en_pauling": [2.2, 1.5], "includesElement__evaporation_heat": [470.0, 758.0], "includesElement__fusion_heat": [21.76, 24.7], "includesElement__glawe_number": [64, 52], "includesElement__group_id": [10, 5], "includesElement__heat_of_formation": [565.7, 782.0], "includesElement__is_radioactive": [false], "includesElement__lattice_constant": [3.92, 3.31], "includesElement__mendeleev_number": [69, 49], "includesElement__molar_heat_capacity": [25.86, 25.36], "includesElement__period": [6], "includesElement__pettifor_number": [68, 53], "includesElement__specific_heat_capacity": [0.133, 0.14], "includesElement__vdw_radius": [213.0, 222.0], "includesElement__vdw_radius_alvarez": [229.0, 253.0], "includesElement__vdw_radius_mm3": [239.0, 243.0], "includesElement__vdw_radius_uff": [275.4, 317.0], "includesElement__atomic_weight_uncertainty": [0.009, 2e-05], "includesElement__c6_gb": [470.0, 887.0], "includesElement__electronegativity_allen": [10.16, 7.93], "includesElement__en_allen": [10.16, 7.93], "includesElement__metallic_radius": [130.0, 134.0], "includesElement__metallic_radius_c12": [139.0, 146.0], "includesElement__thermal_conductivity": [71.6, 57.5], "includesElement__vdw_radius_batsanov": [205.0, 220.0], "includesElement__abundance_sea": [2e-06], "formula": ["Pt4Ta2"], "spacegroup": ["63"], "thermalConductivity": [5.10075], "icsd": ["105802"], "band_gap": [0.0], "density": [19.56657], "density_atomic": [16.15613], "deprecated": [false], "efermi": [7.366066], "energy_above_hull": [0.0], "energy_per_atom": [-8.746834], "formation_energy_per_atom": [-0.7437694], "homogeneous_poisson": [0.36], "is_gap_direct": [false], "is_magnetic": [false], "is_metal": [true], "is_stable": [true], "nelements": [2], "nsites": [6], "num_magnetic_sites": [0], "num_unique_magnetic_sites": [0], "theoretical": [false], "total_magnetization": [0.0], "total_magnetization_normalized_formula_units": [0.0], "total_magnetization_normalized_vol": [0.0], "uncorrected_energy_per_atom": [-51.34145], "universal_anisotropy": [2.75], "volume": [96.9368], "equilibrium_reaction_energy_per_atom": [-0.1152131]}