{"includesElement": ["", "Li", "Cl"], "includesElement___series_id": [3, 6], "includesElement__abundance_crust": [20.0, 145.0], "includesElement__atomic_number": [3, 17], "includesElement__atomic_radius": [145.0, 100.0], "includesElement__atomic_radius_rahm": [220.0, 206.0], "includesElement__atomic_volume": [13.1, 18.7], "includesElement__atomic_weight": [6.94, 35.45], "includesElement__covalent_radius_cordero": [128.0, 102.0], "includesElement__covalent_radius_pyykko": [133.0, 99.0], "includesElement__covalent_radius_pyykko_double": [124.0, 95.0], "includesElement__density": [0.534, 0.002898], "includesElement__dipole_polarizability": [164.1125, 14.6], "includesElement__dipole_polarizability_unc": [0.0005, 0.1], "includesElement__discovery_year": [1817, 1774], "includesElement__electron_affinity": [0.618049, 3.612725], "includesElement__electronegativity_allred-rochow": [7.3492e-05, 0.0006223855], "includesElement__electronegativity_cottrell-sutton": [0.09886575, 0.248226], "includesElement__electronegativity_ghosh": [0.105093, 0.263803], "includesElement__electronegativity_gordy": [0.009774436, 0.06161616], "includesElement__electronegativity_mulliken": [3.004882, 8.290178], "includesElement__electronegativity_nagle": [0.1826499, 0.7826755], "includesElement__electronegativity_pauling": [0.98, 3.16], "includesElement__electronegativity_sanderson": [0.04886793, 0.8123773], "includesElement__en_ghosh": [0.105093, 0.263803], "includesElement__en_pauling": [0.98, 3.16], "includesElement__evaporation_heat": [148.0, 20.41], "includesElement__fusion_heat": [2.89, 6.41], "includesElement__glawe_number": [12, 101], "includesElement__group_id": [1, 17], "includesElement__heat_of_formation": [159.3, 121.302], "includesElement__is_radioactive": [false], "includesElement__lattice_constant": [3.49, 6.24], "includesElement__mendeleev_number": [1, 107], "includesElement__molar_heat_capacity": [24.86, 33.949], "includesElement__period": [2, 3], "includesElement__pettifor_number": [12, 99], "includesElement__specific_heat_capacity": [3.582, 0.479], "includesElement__vdw_radius": [182.0, 175.0], "includesElement__vdw_radius_alvarez": [212.0, 182.0], "includesElement__vdw_radius_mm3": [255.0, 207.0], "includesElement__vdw_radius_uff": [245.1, 394.7], "includesElement__abundance_sea": [0.18, 19400.0], "includesElement__c6_gb": [1410.0, 97.1], "includesElement__covalent_radius_bragg": [150.0, 105.0], "includesElement__electronegativity_allen": [5.392, 16.97], "includesElement__en_allen": [5.392, 16.97], "includesElement__metallic_radius": [123.0], "includesElement__metallic_radius_c12": [155.0, 91.0], "includesElement__thermal_conductivity": [84.8, 0.009], "includesElement__vdw_radius_batsanov": [220.0, 180.0], "includesElement__c6": [1392.0, 94.6], "includesElement__vdw_radius_bondi": [181.0, 175.0], "includesElement__covalent_radius_pyykko_triple": [93.0], "includesElement__vdw_radius_dreiding": [395.03], "includesElement__gas_basicity": [490.1], "includesElement__proton_affinity": [513.6], "includesElement__vdw_radius_rt": [176.0], "formula": ["Cl1Li1", "ClLi"], "mp_id": ["mp-22905"], "spacegroup": ["225"], "thermalConductivity": [3.82212, 4.760833, 4.792506], "icsd": ["26909"], "band_gap": [6.25], "density": [2.142566], "density_atomic": [16.42818], "deprecated": [false], "efermi": [0.1142734], "energy_above_hull": [0.0], "energy_per_atom": [-6.295168], "formation_energy_per_atom": [-2.025595], "homogeneous_poisson": [0.234], "is_gap_direct": [false], "is_magnetic": [false], "is_metal": [false], "is_stable": [true], "nelements": [2], "nsites": [2], "num_magnetic_sites": [0], "num_unique_magnetic_sites": [0], "theoretical": [false], "total_magnetization": [0.0], "total_magnetization_normalized_formula_units": [0.0], "total_magnetization_normalized_vol": [0.0], "uncorrected_energy_per_atom": [-6.295168], "universal_anisotropy": [0.217], "volume": [32.85635], "cbm": [6.2178], "e_electronic": [3.187966], "e_ionic": [7.12756], "e_total": [10.31553], "equilibrium_reaction_energy_per_atom": [-2.025595], "n": [1.785488], "vbm": [-0.0322]}