{"includesElement": ["", "Na", "I"], "includesElement___series_id": [3, 6], "includesElement__abundance_crust": [23600.0, 0.45], "includesElement__atomic_number": [11, 53], "includesElement__atomic_radius": [180.0, 140.0], "includesElement__atomic_radius_rahm": [225.0, 238.0], "includesElement__atomic_volume": [23.7, 25.7], "includesElement__atomic_weight": [22.98977, 126.9045], "includesElement__covalent_radius_cordero": [166.0, 139.0], "includesElement__covalent_radius_pyykko": [155.0, 133.0], "includesElement__covalent_radius_pyykko_double": [160.0, 129.0], "includesElement__density": [0.97, 4.933], "includesElement__dipole_polarizability": [162.7, 32.9], "includesElement__dipole_polarizability_unc": [0.5, 1.3], "includesElement__discovery_year": [1807, 1811], "includesElement__electron_affinity": [0.547926, 3.059037], "includesElement__electronegativity_allred-rochow": [9.157128e-05, 0.0004296455], "includesElement__electronegativity_cottrell-sutton": [0.1191367, 0.2390457], "includesElement__electronegativity_ghosh": [0.093214, 0.2195176], "includesElement__electronegativity_gordy": [0.01419355, 0.05714286], "includesElement__electronegativity_mulliken": [2.843501, 6.755148], "includesElement__electronegativity_nagle": [0.1831769, 0.5969904], "includesElement__electronegativity_pauling": [0.93, 2.66], "includesElement__electronegativity_sanderson": [0.09459764, 0.9386429], "includesElement__en_ghosh": [0.093214, 0.2195176], "includesElement__en_pauling": [0.93, 2.66], "includesElement__evaporation_heat": [97.9, 41.95], "includesElement__fusion_heat": [2.64, 15.52], "includesElement__glawe_number": [11, 99], "includesElement__group_id": [1, 17], "includesElement__heat_of_formation": [107.5, 106.757], "includesElement__is_radioactive": [false], "includesElement__lattice_constant": [4.23, 7.72], "includesElement__mendeleev_number": [2, 109], "includesElement__molar_heat_capacity": [28.23, 54.43], "includesElement__period": [3, 5], "includesElement__pettifor_number": [11, 97], "includesElement__specific_heat_capacity": [1.228, 0.214], "includesElement__vdw_radius": [227.0, 198.0], "includesElement__vdw_radius_alvarez": [250.0, 204.0], "includesElement__vdw_radius_mm3": [270.0, 236.0], "includesElement__vdw_radius_uff": [298.3, 450.0], "includesElement__abundance_sea": [10800.0, 0.06], "includesElement__atomic_weight_uncertainty": [2e-08, 3e-05], "includesElement__c6_gb": [1570.0, 389.0], "includesElement__covalent_radius_bragg": [177.0, 140.0], "includesElement__electronegativity_allen": [5.14, 13.95], "includesElement__en_allen": [5.14, 13.95], "includesElement__metallic_radius": [157.0], "includesElement__metallic_radius_c12": [190.0, 139.0], "includesElement__thermal_conductivity": [142.0], "includesElement__vdw_radius_batsanov": [240.0, 210.0], "includesElement__c6": [1518.0, 385.0], "includesElement__is_monoisotopic": [true], "includesElement__vdw_radius_bondi": [227.0, 198.0], "includesElement__covalent_radius_pyykko_triple": [125.0], "includesElement__vdw_radius_dreiding": [415.0], "includesElement__gas_basicity": [583.5], "includesElement__proton_affinity": [608.2], "includesElement__vdw_radius_rt": [203.0], "formula": ["I1Na1", "INa"], "mp_id": ["mp-23268"], "spacegroup": ["225"], "thermalConductivity": [0.851748, 2.266325, 2.381246], "icsd": ["44279"], "band_gap": [3.5687], "density": [3.73233], "density_atomic": [33.34448], "deprecated": [false], "efermi": [0.8561059], "energy_above_hull": [0.0], "energy_per_atom": [-2.882909], "formation_energy_per_atom": [-1.475366], "homogeneous_poisson": [0.267], "is_gap_direct": [true], "is_magnetic": [false], "is_metal": [false], "is_stable": [true], "nelements": [2], "nsites": [2], "num_magnetic_sites": [0], "num_unique_magnetic_sites": [0], "theoretical": [false], "total_magnetization": [0.0], "total_magnetization_normalized_formula_units": [0.0], "total_magnetization_normalized_vol": [0.0], "uncorrected_energy_per_atom": [-15.5444], "universal_anisotropy": [0.229], "volume": [66.68896], "cbm": [4.1899], "e_electronic": [3.332675], "e_ionic": [5.028598], "e_total": [8.361273], "equilibrium_reaction_energy_per_atom": [-1.475366], "n": [1.825562], "vbm": [0.6212]}