{"includesElement": ["", "V", "C"], "includesElement___series_id": [8, 1], "includesElement__abundance_crust": [120.0, 200.0], "includesElement__atomic_number": [23, 6], "includesElement__atomic_radius": [135.0, 70.0], "includesElement__atomic_radius_rahm": [252.0, 190.0], "includesElement__atomic_volume": [8.35, 5.3], "includesElement__atomic_weight": [50.9415, 12.011], "includesElement__covalent_radius_cordero": [153.0, 73.0], "includesElement__covalent_radius_pyykko": [134.0, 75.0], "includesElement__covalent_radius_pyykko_double": [112.0, 67.0], "includesElement__covalent_radius_pyykko_triple": [106.0, 60.0], "includesElement__density": [6.0, 2.2], "includesElement__dipole_polarizability": [87.0, 11.3], "includesElement__dipole_polarizability_unc": [10.0, 0.2], "includesElement__discovery_year": [1830], "includesElement__electron_affinity": [0.525, 1.262119], "includesElement__electronegativity_allred-rochow": [0.0001837826, 0.0005777778], "includesElement__electronegativity_cottrell-sutton": [0.1569295, 0.2081666], "includesElement__electronegativity_ghosh": [0.1273344, 0.224776], "includesElement__electronegativity_gordy": [0.02462687, 0.04333333], "includesElement__electronegativity_mulliken": [3.635594, 6.261208], "includesElement__electronegativity_nagle": [0.3859078, 0.7073926], "includesElement__electronegativity_pauling": [1.63, 2.55], "includesElement__electronegativity_sanderson": [0.4388898, 0.427525], "includesElement__en_ghosh": [0.1273344, 0.224776], "includesElement__en_pauling": [1.63, 2.55], "includesElement__evaporation_heat": [460.0], "includesElement__fusion_heat": [17.5], "includesElement__glawe_number": [54, 87], "includesElement__group_id": [5, 14], "includesElement__heat_of_formation": [515.5, 716.87], "includesElement__is_radioactive": [false], "includesElement__lattice_constant": [3.02, 3.57], "includesElement__mendeleev_number": [47, 87], "includesElement__molar_heat_capacity": [24.89, 8.517], "includesElement__period": [4, 2], "includesElement__pettifor_number": [54, 95], "includesElement__specific_heat_capacity": [0.489, 0.709], "includesElement__vdw_radius": [207.0, 170.0], "includesElement__vdw_radius_alvarez": [242.0, 177.0], "includesElement__vdw_radius_mm3": [229.0, 204.0], "includesElement__vdw_radius_uff": [314.4, 385.1], "includesElement__abundance_sea": [0.0025, 28.0], "includesElement__atomic_weight_uncertainty": [0.0001], "includesElement__c6_gb": [955.0, 47.9], "includesElement__electronegativity_allen": [9.063, 15.05], "includesElement__en_allen": [9.063, 15.05], "includesElement__metallic_radius": [122.0], "includesElement__metallic_radius_c12": [134.0, 86.0], "includesElement__thermal_conductivity": [30.7, 1.59], "includesElement__vdw_radius_batsanov": [205.0, 170.0], "includesElement__c6": [832.0, 46.6], "includesElement__gas_basicity": [836.8], "includesElement__proton_affinity": [859.4], "includesElement__covalent_radius_bragg": [77.0], "includesElement__vdw_radius_dreiding": [389.83], "includesElement__vdw_radius_bondi": [170.0], "includesElement__vdw_radius_rt": [177.0], "formula": ["C4V8"], "spacegroup": ["60"], "thermalConductivity": [13.2291], "icsd": ["108192"], "band_gap": [0.0], "density": [5.815869], "density_atomic": [10.83959], "deprecated": [false], "efermi": [6.435809], "energy_above_hull": [0.0], "energy_per_atom": [-9.603058], "formation_energy_per_atom": [-0.4708992], "homogeneous_poisson": [0.29], "is_gap_direct": [false], "is_magnetic": [false], "is_metal": [true], "is_stable": [true], "nelements": [2], "nsites": [12], "num_magnetic_sites": [0], "num_unique_magnetic_sites": [0], "theoretical": [false], "total_magnetization": [1e-07], "total_magnetization_normalized_formula_units": [2.5e-08], "total_magnetization_normalized_vol": [7.687867e-10], "uncorrected_energy_per_atom": [-13.24803], "universal_anisotropy": [0.139], "volume": [130.0751], "equilibrium_reaction_energy_per_atom": [-0.07267322]}