{"includesElement": ["", "Dy", "Ru"], "includesElement___series_id": [9, 8], "includesElement__abundance_crust": [5.2, 0.001], "includesElement__atomic_number": [66, 44], "includesElement__atomic_radius": [175.0, 130.0], "includesElement__atomic_radius_rahm": [275.0, 237.0], "includesElement__atomic_volume": [19.0, 8.3], "includesElement__atomic_weight": [162.5, 101.07], "includesElement__covalent_radius_cordero": [192.0, 146.0], "includesElement__covalent_radius_pyykko": [167.0, 125.0], "includesElement__covalent_radius_pyykko_double": [133.0, 114.0], "includesElement__density": [8.55, 12.1], "includesElement__dipole_polarizability": [163.0, 72.0], "includesElement__dipole_polarizability_unc": [15.0, 10.0], "includesElement__discovery_year": [1886, 1844], "includesElement__electron_affinity": [0.352, 1.05], "includesElement__electronegativity_allred-rochow": [0.0001021908, 0.000208], "includesElement__electronegativity_cottrell-sutton": [0.1306364, 0.1612452], "includesElement__electronegativity_ghosh": [0.20333, 0.1376494], "includesElement__electronegativity_gordy": [0.01706587, 0.026], "includesElement__electronegativity_mulliken": [3.145525, 4.20525], "includesElement__electronegativity_nagle": [0.4191131, 0.4807499], "includesElement__electronegativity_pauling": [1.22, 2.2], "includesElement__electronegativity_sanderson": [0.5297338, 0.9579373], "includesElement__en_ghosh": [0.20333, 0.1376494], "includesElement__en_pauling": [1.22, 2.2], "includesElement__evaporation_heat": [291.0], "includesElement__glawe_number": [24, 61], "includesElement__heat_of_formation": [290.4, 650.6], "includesElement__is_radioactive": [false], "includesElement__lattice_constant": [3.59, 2.7], "includesElement__mendeleev_number": [31, 60], "includesElement__molar_heat_capacity": [28.16, 24.06], "includesElement__period": [6, 5], "includesElement__pettifor_number": [25, 63], "includesElement__specific_heat_capacity": [0.173, 0.238], "includesElement__vdw_radius": [231.0, 213.0], "includesElement__vdw_radius_alvarez": [287.0, 246.0], "includesElement__vdw_radius_mm3": [290.0, 234.0], "includesElement__vdw_radius_uff": [342.8, 296.3], "includesElement__abundance_sea": [9.1e-07, 7e-07], "includesElement__atomic_weight_uncertainty": [0.001, 0.02], "includesElement__c6_gb": [2430.0, 809.0], "includesElement__thermal_conductivity": [10.7, 117.0], "includesElement__covalent_radius_pyykko_triple": [103.0], "includesElement__fusion_heat": [25.5], "includesElement__group_id": [8], "includesElement__electronegativity_allen": [9.1], "includesElement__en_allen": [9.1], "includesElement__metallic_radius": [125.0], "includesElement__metallic_radius_c12": [134.0], "includesElement__vdw_radius_batsanov": [205.0], "includesElement__gas_basicity": [751.4], "includesElement__proton_affinity": [774.0], "formula": ["Dy10Ru4"], "spacegroup": ["15"], "thermalConductivity": [2.03415], "icsd": ["103366"], "band_gap": [0.0], "density": [9.471949], "density_atomic": [25.41111], "deprecated": [false], "efermi": [3.977262], "energy_above_hull": [0.0], "energy_per_atom": [-6.297673], "formation_energy_per_atom": [-0.3490041], "is_gap_direct": [false], "is_magnetic": [false], "is_metal": [true], "is_stable": [true], "nelements": [2], "nsites": [14], "num_magnetic_sites": [0], "num_unique_magnetic_sites": [0], "theoretical": [false], "total_magnetization": [1e-07], "total_magnetization_normalized_formula_units": [5e-08], "total_magnetization_normalized_vol": [2.810919e-10], "uncorrected_energy_per_atom": [-30.49461], "volume": [355.7556], "equilibrium_reaction_energy_per_atom": [-0.03320114]}