{"includesElement": ["", "Ta"], "includesElement___series_id": [8], "includesElement__abundance_crust": [2.0], "includesElement__atomic_number": [73], "includesElement__atomic_radius": [145.0], "includesElement__atomic_radius_rahm": [258.0], "includesElement__atomic_volume": [10.9], "includesElement__atomic_weight": [180.9479], "includesElement__covalent_radius_cordero": [170.0], "includesElement__covalent_radius_pyykko": [146.0], "includesElement__covalent_radius_pyykko_double": [126.0], "includesElement__covalent_radius_pyykko_triple": [119.0], "includesElement__density": [16.4], "includesElement__dipole_polarizability": [74.0], "includesElement__dipole_polarizability_unc": [20.0], "includesElement__discovery_year": [1802], "includesElement__electron_affinity": [0.322], "includesElement__electronegativity_allred-rochow": [0.0001548133], "includesElement__electronegativity_cottrell-sutton": [0.1503421], "includesElement__electronegativity_ghosh": [0.234581], "includesElement__electronegativity_gordy": [0.02260274], "includesElement__electronegativity_mulliken": [3.935785], "includesElement__electronegativity_nagle": [0.4072985], "includesElement__electronegativity_pauling": [1.5], "includesElement__electronegativity_sanderson": [0.8358832], "includesElement__en_ghosh": [0.234581], "includesElement__en_pauling": [1.5], "includesElement__evaporation_heat": [758.0], "includesElement__fusion_heat": [24.7], "includesElement__glawe_number": [52], "includesElement__group_id": [5], "includesElement__heat_of_formation": [782.0], "includesElement__is_radioactive": [false], "includesElement__lattice_constant": [3.31], "includesElement__mendeleev_number": [49], "includesElement__molar_heat_capacity": [25.36], "includesElement__period": [6], "includesElement__pettifor_number": [53], "includesElement__specific_heat_capacity": [0.14], "includesElement__vdw_radius": [222.0], "includesElement__vdw_radius_alvarez": [253.0], "includesElement__vdw_radius_mm3": [243.0], "includesElement__vdw_radius_uff": [317.0], "includesElement__abundance_sea": [2e-06], "includesElement__atomic_weight_uncertainty": [2e-05], "includesElement__c6_gb": [887.0], "includesElement__electronegativity_allen": [7.93], "includesElement__en_allen": [7.93], "includesElement__metallic_radius": [134.0], "includesElement__metallic_radius_c12": [146.0], "includesElement__thermal_conductivity": [57.5], "includesElement__vdw_radius_batsanov": [220.0], "formula": ["Ta30"], "spacegroup": ["136"], "thermalConductivity": [2.70884], "icsd": ["652898"], "band_gap": [0.0], "density": [16.26011], "density_atomic": [18.47903], "deprecated": [false], "efermi": [5.267269], "energy_above_hull": [0.0], "energy_per_atom": [-48.59183], "formation_energy_per_atom": [0.0], "homogeneous_poisson": [0.439], "is_gap_direct": [false], "is_magnetic": [false], "is_metal": [true], "is_stable": [true], "nelements": [1], "nsites": [30], "num_magnetic_sites": [0], "num_unique_magnetic_sites": [0], "theoretical": [false], "total_magnetization": [3.3e-06], "total_magnetization_normalized_formula_units": [1.1e-07], "total_magnetization_normalized_vol": [5.952694e-09], "uncorrected_energy_per_atom": [-48.59183], "universal_anisotropy": [-197749.3], "volume": [554.3708], "equilibrium_reaction_energy_per_atom": [0.0]}