{"includesElement": ["", "Mg", "O"], "includesElement___series_id": [4, 1], "includesElement__abundance_crust": [23300.0, 461000.0], "includesElement__atomic_number": [12, 8], "includesElement__atomic_radius": [150.0, 60.0], "includesElement__atomic_radius_rahm": [240.0, 171.0], "includesElement__atomic_volume": [14.0], "includesElement__atomic_weight": [24.305, 15.999], "includesElement__covalent_radius_cordero": [141.0, 66.0], "includesElement__covalent_radius_pyykko": [139.0, 63.0], "includesElement__covalent_radius_pyykko_double": [132.0, 57.0], "includesElement__covalent_radius_pyykko_triple": [127.0, 53.0], "includesElement__density": [1.74, 0.001308], "includesElement__dipole_polarizability": [71.2, 5.3], "includesElement__dipole_polarizability_unc": [0.4, 0.2], "includesElement__discovery_year": [1808, 1774], "includesElement__electronegativity_allred-rochow": [0.0001475079, 0.001146384], "includesElement__electronegativity_cottrell-sutton": [0.1431908, 0.2687419], "includesElement__electronegativity_ghosh": [0.121644, 0.304575], "includesElement__electronegativity_gordy": [0.0205036, 0.07222222], "includesElement__electronegativity_mulliken": [3.823117, 7.539584], "includesElement__electronegativity_nagle": [0.3039835, 1.042218], "includesElement__electronegativity_pauling": [1.31, 3.44], "includesElement__electronegativity_sanderson": [0.1524211, 0.9416494], "includesElement__en_ghosh": [0.121644, 0.304575], "includesElement__en_pauling": [1.31, 3.44], "includesElement__evaporation_heat": [131.8], "includesElement__fusion_heat": [9.2], "includesElement__glawe_number": [73, 97], "includesElement__group_id": [2, 16], "includesElement__heat_of_formation": [147.1, 249.229], "includesElement__is_radioactive": [false], "includesElement__lattice_constant": [3.21, 6.83], "includesElement__mendeleev_number": [76, 99], "includesElement__molar_heat_capacity": [24.869, 29.378], "includesElement__period": [3, 2], "includesElement__pettifor_number": [73, 101], "includesElement__specific_heat_capacity": [1.023, 0.918], "includesElement__vdw_radius": [173.0, 152.0], "includesElement__vdw_radius_alvarez": [251.0, 150.0], "includesElement__vdw_radius_mm3": [243.0, 182.0], "includesElement__vdw_radius_uff": [302.1, 350.0], "includesElement__abundance_sea": [1290.0, 857000.0], "includesElement__c6_gb": [629.0, 16.7], "includesElement__covalent_radius_bragg": [142.0, 65.0], "includesElement__electronegativity_allen": [7.646, 21.36], "includesElement__en_allen": [7.646, 21.36], "includesElement__metallic_radius": [136.0], "includesElement__metallic_radius_c12": [160.0], "includesElement__thermal_conductivity": [156.0, 0.027], "includesElement__vdw_radius_batsanov": [220.0, 155.0], "includesElement__c6": [626.0, 15.6], "includesElement__gas_basicity": [797.3, 459.6], "includesElement__proton_affinity": [819.6, 485.2], "includesElement__vdw_radius_bondi": [173.0, 152.0], "includesElement__electron_affinity": [1.461113], "includesElement__vdw_radius_dreiding": [340.46], "includesElement__vdw_radius_rt": [158.0], "formula": ["Mg4O8"], "spacegroup": ["205"], "thermalConductivity": [9.78385], "icsd": ["35479"], "band_gap": [3.734], "density": [3.321848], "density_atomic": [9.381792], "deprecated": [false], "efermi": [3.298903], "energy_above_hull": [0.09430626], "energy_per_atom": [-7.268724], "formation_energy_per_atom": [-1.905189], "homogeneous_poisson": [0.227], "is_gap_direct": [false], "is_magnetic": [false], "is_metal": [false], "is_stable": [false], "nelements": [2], "nsites": [12], "num_magnetic_sites": [0], "num_unique_magnetic_sites": [0], "theoretical": [false], "total_magnetization": [0.0], "total_magnetization_normalized_formula_units": [0.0], "total_magnetization_normalized_vol": [0.0], "uncorrected_energy_per_atom": [-7.268724], "universal_anisotropy": [0.002], "volume": [112.5815], "cbm": [7.0076], "vbm": [3.2736]}