{"includesElement": ["", "Sn", "Zr"], "includesElement___series_id": [7, 8], "includesElement__abundance_crust": [2.3, 165.0], "includesElement__atomic_number": [50, 40], "includesElement__atomic_radius": [145.0, 155.0], "includesElement__atomic_radius_rahm": [248.0, 269.0], "includesElement__atomic_volume": [16.3, 14.1], "includesElement__atomic_weight": [118.71, 91.224], "includesElement__covalent_radius_cordero": [139.0, 175.0], "includesElement__covalent_radius_pyykko": [140.0, 154.0], "includesElement__covalent_radius_pyykko_double": [130.0, 127.0], "includesElement__covalent_radius_pyykko_triple": [132.0, 121.0], "includesElement__density": [7.287, 6.52], "includesElement__dipole_polarizability": [53.0, 112.0], "includesElement__dipole_polarizability_unc": [6.0, 13.0], "includesElement__electron_affinity": [1.112067, 0.426], "includesElement__electronegativity_allred-rochow": [0.0002882653, 0.0001328217], "includesElement__electronegativity_cottrell-sutton": [0.2008909, 0.1430194], "includesElement__electronegativity_ghosh": [0.178052, 0.1248887], "includesElement__electronegativity_gordy": [0.04035714, 0.02045455], "includesElement__electronegativity_mulliken": [4.227992, 3.52995], "includesElement__electronegativity_nagle": [0.4225986, 0.3293169], "includesElement__electronegativity_pauling": [1.96, 1.33], "includesElement__electronegativity_sanderson": [0.7622797, 0.4744467], "includesElement__en_ghosh": [0.178052, 0.1248887], "includesElement__en_pauling": [1.96, 1.33], "includesElement__evaporation_heat": [296.0, 567.0], "includesElement__fusion_heat": [7.07, 19.2], "includesElement__glawe_number": [83, 49], "includesElement__group_id": [14, 4], "includesElement__heat_of_formation": [301.2, 610.0], "includesElement__is_radioactive": [false], "includesElement__lattice_constant": [5.82, 3.23], "includesElement__mendeleev_number": [90, 44], "includesElement__molar_heat_capacity": [26.99, 25.36], "includesElement__period": [5], "includesElement__pettifor_number": [83, 49], "includesElement__specific_heat_capacity": [0.227, 0.278], "includesElement__vdw_radius": [217.0, 223.0], "includesElement__vdw_radius_alvarez": [242.0, 252.0], "includesElement__vdw_radius_mm3": [259.0, 254.0], "includesElement__vdw_radius_uff": [439.2, 312.4], "includesElement__abundance_sea": [4e-06, 3e-05], "includesElement__atomic_weight_uncertainty": [0.007, 0.002], "includesElement__c6_gb": [715.0, 1360.0], "includesElement__covalent_radius_bragg": [140.0], "includesElement__electronegativity_allen": [10.79, 7.808], "includesElement__en_allen": [10.79, 7.808], "includesElement__metallic_radius": [142.0, 145.0], "includesElement__metallic_radius_c12": [163.0, 160.0], "includesElement__thermal_conductivity": [66.8, 22.7], "includesElement__vdw_radius_batsanov": [225.0, 230.0], "includesElement__c6": [659.0], "includesElement__vdw_radius_dreiding": [447.0], "includesElement__vdw_radius_bondi": [217.0], "includesElement__discovery_year": [1789], "formula": ["Sn2Zr6"], "spacegroup": ["223"], "thermalConductivity": [3.21006], "icsd": ["106108"], "band_gap": [0.0], "density": [7.268468], "density_atomic": [22.41069], "deprecated": [false], "efermi": [5.862953], "energy_above_hull": [0.02828938], "energy_per_atom": [-23.64754], "formation_energy_per_atom": [-0.3986454], "homogeneous_poisson": [0.331], "is_gap_direct": [false], "is_magnetic": [false], "is_metal": [true], "is_stable": [false], "nelements": [2], "nsites": [8], "num_magnetic_sites": [0], "num_unique_magnetic_sites": [0], "theoretical": [false], "total_magnetization": [0.0090956], "total_magnetization_normalized_formula_units": [0.0045478], "total_magnetization_normalized_vol": [5.073248e-05], "uncorrected_energy_per_atom": [-23.64754], "universal_anisotropy": [0.69], "volume": [179.2855]}