{"includesElement": ["", "Sc"], "includesElement___series_id": [8], "includesElement__abundance_crust": [22.0], "includesElement__atomic_number": [21], "includesElement__atomic_radius": [160.0], "includesElement__atomic_radius_rahm": [263.0], "includesElement__atomic_volume": [15.0], "includesElement__atomic_weight": [44.95591], "includesElement__covalent_radius_cordero": [170.0], "includesElement__covalent_radius_pyykko": [148.0], "includesElement__covalent_radius_pyykko_double": [116.0], "includesElement__covalent_radius_pyykko_triple": [114.0], "includesElement__density": [2.99], "includesElement__dipole_polarizability": [97.0], "includesElement__dipole_polarizability_unc": [10.0], "includesElement__discovery_year": [1879], "includesElement__electron_affinity": [0.188], "includesElement__electronegativity_allred-rochow": [0.0001369613], "includesElement__electronegativity_cottrell-sutton": [0.1423737], "includesElement__electronegativity_ghosh": [0.1193833], "includesElement__electronegativity_gordy": [0.02027027], "includesElement__electronegativity_mulliken": [3.374745], "includesElement__electronegativity_nagle": [0.3138941], "includesElement__electronegativity_pauling": [1.36], "includesElement__electronegativity_sanderson": [0.3038674], "includesElement__en_ghosh": [0.1193833], "includesElement__en_pauling": [1.36], "includesElement__evaporation_heat": [332.7], "includesElement__fusion_heat": [15.8], "includesElement__glawe_number": [48], "includesElement__group_id": [3], "includesElement__heat_of_formation": [377.8], "includesElement__is_radioactive": [false], "includesElement__lattice_constant": [3.31], "includesElement__mendeleev_number": [11], "includesElement__molar_heat_capacity": [25.52], "includesElement__period": [4], "includesElement__pettifor_number": [20], "includesElement__specific_heat_capacity": [0.568], "includesElement__vdw_radius": [215.0], "includesElement__vdw_radius_alvarez": [258.0], "includesElement__vdw_radius_mm3": [261.0], "includesElement__vdw_radius_uff": [329.5], "includesElement__abundance_sea": [6e-07], "includesElement__atomic_weight_uncertainty": [5e-06], "includesElement__c6_gb": [1570.0], "includesElement__electronegativity_allen": [7.042], "includesElement__en_allen": [7.042], "includesElement__metallic_radius": [144.0], "includesElement__metallic_radius_c12": [162.0], "includesElement__thermal_conductivity": [15.8], "includesElement__vdw_radius_batsanov": [230.0], "includesElement__c6": [1383.0], "includesElement__is_monoisotopic": [true], "includesElement__gas_basicity": [892.0], "includesElement__proton_affinity": [914.0], "formula": ["Sc2"], "spacegroup": ["194"], "thermalConductivity": [18.1683], "icsd": ["102654"], "band_gap": [0.0], "density": [2.984581], "density_atomic": [25.01224], "deprecated": [false], "efermi": [3.775145], "energy_above_hull": [0.0], "energy_per_atom": [-11.39849], "formation_energy_per_atom": [0.0], "has_reconstructed": [false], "homogeneous_poisson": [0.253], "is_gap_direct": [false], "is_magnetic": [true], "is_metal": [true], "is_stable": [true], "nelements": [1], "nsites": [2], "num_magnetic_sites": [2], "num_unique_magnetic_sites": [1], "shape_factor": [5.018716], "surface_anisotropy": [0.03653569], "theoretical": [false], "total_magnetization": [1.381615], "total_magnetization_normalized_formula_units": [0.6908074], "total_magnetization_normalized_vol": [0.02761878], "uncorrected_energy_per_atom": [-11.39849], "universal_anisotropy": [0.055], "volume": [50.02447], "weighted_surface_energy": [1.249894], "weighted_surface_energy_EV_PER_ANG2": [0.07801223], "weighted_work_function": [3.12074], "equilibrium_reaction_energy_per_atom": [0.0]}