{"includesElement": ["", "O", "Sc"], "includesElement___series_id": [1, 8], "includesElement__abundance_crust": [461000.0, 22.0], "includesElement__atomic_number": [8, 21], "includesElement__atomic_radius": [60.0, 160.0], "includesElement__atomic_radius_rahm": [171.0, 263.0], "includesElement__atomic_volume": [14.0, 15.0], "includesElement__atomic_weight": [15.999, 44.95591], "includesElement__covalent_radius_cordero": [66.0, 170.0], "includesElement__covalent_radius_pyykko": [63.0, 148.0], "includesElement__covalent_radius_pyykko_double": [57.0, 116.0], "includesElement__covalent_radius_pyykko_triple": [53.0, 114.0], "includesElement__density": [0.001308, 2.99], "includesElement__dipole_polarizability": [5.3, 97.0], "includesElement__dipole_polarizability_unc": [0.2, 10.0], "includesElement__discovery_year": [1774, 1879], "includesElement__electron_affinity": [1.461113, 0.188], "includesElement__electronegativity_allred-rochow": [0.001146384, 0.0001369613], "includesElement__electronegativity_cottrell-sutton": [0.2687419, 0.1423737], "includesElement__electronegativity_ghosh": [0.304575, 0.1193833], "includesElement__electronegativity_gordy": [0.07222222, 0.02027027], "includesElement__electronegativity_mulliken": [7.539584, 3.374745], "includesElement__electronegativity_nagle": [1.042218, 0.3138941], "includesElement__electronegativity_pauling": [3.44, 1.36], "includesElement__electronegativity_sanderson": [0.9416494, 0.3038674], "includesElement__en_ghosh": [0.304575, 0.1193833], "includesElement__en_pauling": [3.44, 1.36], "includesElement__glawe_number": [97, 48], "includesElement__group_id": [16, 3], "includesElement__heat_of_formation": [249.229, 377.8], "includesElement__is_radioactive": [false], "includesElement__lattice_constant": [6.83, 3.31], "includesElement__mendeleev_number": [99, 11], "includesElement__molar_heat_capacity": [29.378, 25.52], "includesElement__period": [2, 4], "includesElement__pettifor_number": [101, 20], "includesElement__specific_heat_capacity": [0.918, 0.568], "includesElement__vdw_radius": [152.0, 215.0], "includesElement__vdw_radius_alvarez": [150.0, 258.0], "includesElement__vdw_radius_mm3": [182.0, 261.0], "includesElement__vdw_radius_uff": [350.0, 329.5], "includesElement__abundance_sea": [857000.0, 6e-07], "includesElement__c6_gb": [16.7, 1570.0], "includesElement__covalent_radius_bragg": [65.0], "includesElement__electronegativity_allen": [21.36, 7.042], "includesElement__en_allen": [21.36, 7.042], "includesElement__thermal_conductivity": [0.027, 15.8], "includesElement__vdw_radius_batsanov": [155.0, 230.0], "includesElement__c6": [15.6, 1383.0], "includesElement__vdw_radius_dreiding": [340.46], "includesElement__gas_basicity": [459.6, 892.0], "includesElement__proton_affinity": [485.2, 914.0], "includesElement__vdw_radius_bondi": [152.0], "includesElement__vdw_radius_rt": [158.0], "includesElement__evaporation_heat": [332.7], "includesElement__fusion_heat": [15.8], "includesElement__atomic_weight_uncertainty": [5e-06], "includesElement__metallic_radius": [144.0], "includesElement__metallic_radius_c12": [162.0], "includesElement__is_monoisotopic": [true], "formula": ["O24Sc16"], "spacegroup": ["206"], "thermalConductivity": [4.23674], "icsd": ["24200"], "band_gap": [3.8235], "density": [3.818905], "density_atomic": [11.99323], "deprecated": [false], "efermi": [2.409887], "energy_above_hull": [0.0], "energy_per_atom": [-11.99839], "formation_energy_per_atom": [-3.862606], "homogeneous_poisson": [0.294], "is_gap_direct": [true], "is_magnetic": [false], "is_metal": [false], "is_stable": [true], "nelements": [2], "nsites": [40], "num_magnetic_sites": [0], "num_unique_magnetic_sites": [0], "theoretical": [false], "total_magnetization": [0.0], "total_magnetization_normalized_formula_units": [0.0], "total_magnetization_normalized_vol": [0.0], "uncorrected_energy_per_atom": [-11.99839], "universal_anisotropy": [0.02], "volume": [479.7291], "cbm": [6.2236], "equilibrium_reaction_energy_per_atom": [-3.862606], "vbm": [2.4001]}