{"includesElement": ["", "Li", "O"], "includesElement___series_id": [3, 1], "includesElement__abundance_crust": [20.0, 461000.0], "includesElement__atomic_number": [3, 8], "includesElement__atomic_radius": [145.0, 60.0], "includesElement__atomic_radius_rahm": [220.0, 171.0], "includesElement__atomic_volume": [13.1, 14.0], "includesElement__atomic_weight": [6.94, 15.999], "includesElement__covalent_radius_cordero": [128.0, 66.0], "includesElement__covalent_radius_pyykko": [133.0, 63.0], "includesElement__covalent_radius_pyykko_double": [124.0, 57.0], "includesElement__density": [0.534, 0.001308], "includesElement__dipole_polarizability": [164.1125, 5.3], "includesElement__dipole_polarizability_unc": [0.0005, 0.2], "includesElement__discovery_year": [1817, 1774], "includesElement__electron_affinity": [0.618049, 1.461113], "includesElement__electronegativity_allred-rochow": [7.3492e-05, 0.001146384], "includesElement__electronegativity_cottrell-sutton": [0.09886575, 0.2687419], "includesElement__electronegativity_ghosh": [0.105093, 0.304575], "includesElement__electronegativity_gordy": [0.009774436, 0.07222222], "includesElement__electronegativity_mulliken": [3.004882, 7.539584], "includesElement__electronegativity_nagle": [0.1826499, 1.042218], "includesElement__electronegativity_pauling": [0.98, 3.44], "includesElement__electronegativity_sanderson": [0.04886793, 0.9416494], "includesElement__en_ghosh": [0.105093, 0.304575], "includesElement__en_pauling": [0.98, 3.44], "includesElement__evaporation_heat": [148.0], "includesElement__fusion_heat": [2.89], "includesElement__glawe_number": [12, 97], "includesElement__group_id": [1, 16], "includesElement__heat_of_formation": [159.3, 249.229], "includesElement__is_radioactive": [false], "includesElement__lattice_constant": [3.49, 6.83], "includesElement__mendeleev_number": [1, 99], "includesElement__molar_heat_capacity": [24.86, 29.378], "includesElement__period": [2], "includesElement__pettifor_number": [12, 101], "includesElement__specific_heat_capacity": [3.582, 0.918], "includesElement__vdw_radius": [182.0, 152.0], "includesElement__vdw_radius_alvarez": [212.0, 150.0], "includesElement__vdw_radius_mm3": [255.0, 182.0], "includesElement__vdw_radius_uff": [245.1, 350.0], "includesElement__abundance_sea": [0.18, 857000.0], "includesElement__c6_gb": [1410.0, 16.7], "includesElement__covalent_radius_bragg": [150.0, 65.0], "includesElement__electronegativity_allen": [5.392, 21.36], "includesElement__en_allen": [5.392, 21.36], "includesElement__metallic_radius": [123.0], "includesElement__metallic_radius_c12": [155.0], "includesElement__thermal_conductivity": [84.8, 0.027], "includesElement__vdw_radius_batsanov": [220.0, 155.0], "includesElement__c6": [1392.0, 15.6], "includesElement__vdw_radius_bondi": [181.0, 152.0], "includesElement__covalent_radius_pyykko_triple": [53.0], "includesElement__vdw_radius_dreiding": [340.46], "includesElement__gas_basicity": [459.6], "includesElement__proton_affinity": [485.2], "includesElement__vdw_radius_rt": [158.0], "formula": ["Li2O1"], "spacegroup": ["225"], "thermalConductivity": [19.3402], "icsd": ["173180"], "band_gap": [4.8986], "density": [1.969302], "density_atomic": [8.398783], "deprecated": [false], "efermi": [-0.00053712], "energy_above_hull": [0.0], "energy_per_atom": [-4.983533], "formation_energy_per_atom": [-2.060164], "homogeneous_poisson": [0.163], "is_gap_direct": [false], "is_magnetic": [false], "is_metal": [false], "is_stable": [true], "nelements": [2], "nsites": [3], "num_magnetic_sites": [0], "num_unique_magnetic_sites": [0], "theoretical": [false], "total_magnetization": [0.0], "total_magnetization_normalized_formula_units": [0.0], "total_magnetization_normalized_vol": [0.0], "uncorrected_energy_per_atom": [-5.608853], "universal_anisotropy": [0.246], "volume": [25.19635], "cbm": [4.7482], "e_electronic": [2.921744], "e_ionic": [4.343417], "e_total": [7.265161], "equilibrium_reaction_energy_per_atom": [-0.9614844], "n": [1.709311], "vbm": [-0.1504]}