{"includesElement": ["", "Dy"], "includesElement___series_id": [9], "includesElement__abundance_crust": [5.2], "includesElement__atomic_number": [66], "includesElement__atomic_radius": [175.0], "includesElement__atomic_radius_rahm": [275.0], "includesElement__atomic_volume": [19.0], "includesElement__atomic_weight": [162.5], "includesElement__covalent_radius_cordero": [192.0], "includesElement__covalent_radius_pyykko": [167.0], "includesElement__covalent_radius_pyykko_double": [133.0], "includesElement__density": [8.55], "includesElement__dipole_polarizability": [163.0], "includesElement__dipole_polarizability_unc": [15.0], "includesElement__discovery_year": [1886], "includesElement__electron_affinity": [0.352], "includesElement__electronegativity_allred-rochow": [0.0001021908], "includesElement__electronegativity_cottrell-sutton": [0.1306364], "includesElement__electronegativity_ghosh": [0.20333], "includesElement__electronegativity_gordy": [0.01706587], "includesElement__electronegativity_mulliken": [3.145525], "includesElement__electronegativity_nagle": [0.4191131], "includesElement__electronegativity_pauling": [1.22], "includesElement__electronegativity_sanderson": [0.5297338], "includesElement__en_ghosh": [0.20333], "includesElement__en_pauling": [1.22], "includesElement__evaporation_heat": [291.0], "includesElement__glawe_number": [24], "includesElement__heat_of_formation": [290.4], "includesElement__is_radioactive": [false], "includesElement__lattice_constant": [3.59], "includesElement__mendeleev_number": [31], "includesElement__molar_heat_capacity": [28.16], "includesElement__period": [6], "includesElement__pettifor_number": [25], "includesElement__specific_heat_capacity": [0.173], "includesElement__vdw_radius": [231.0], "includesElement__vdw_radius_alvarez": [287.0], "includesElement__vdw_radius_mm3": [290.0], "includesElement__vdw_radius_uff": [342.8], "includesElement__abundance_sea": [9.1e-07], "includesElement__atomic_weight_uncertainty": [0.001], "includesElement__c6_gb": [2430.0], "includesElement__thermal_conductivity": [10.7], "formula": ["Dy2"], "spacegroup": ["194"], "thermalConductivity": [12.2794], "icsd": ["108420"], "band_gap": [0.0], "density": [8.431289], "density_atomic": [32.00431], "deprecated": [false], "efermi": [3.167047], "energy_above_hull": [0.0], "energy_per_atom": [-31.9818], "formation_energy_per_atom": [0.0], "has_reconstructed": [false], "homogeneous_poisson": [0.23], "is_gap_direct": [false], "is_magnetic": [false], "is_metal": [true], "is_stable": [true], "nelements": [1], "nsites": [2], "num_magnetic_sites": [0], "num_unique_magnetic_sites": [0], "shape_factor": [4.989451], "surface_anisotropy": [0.03082354], "theoretical": [false], "total_magnetization": [6e-06], "total_magnetization_normalized_formula_units": [3e-06], "total_magnetization_normalized_vol": [9.373737e-08], "uncorrected_energy_per_atom": [-31.9818], "universal_anisotropy": [0.029], "volume": [64.00862], "weighted_surface_energy": [0.9955419], "weighted_surface_energy_EV_PER_ANG2": [0.06213684], "weighted_work_function": [2.86899], "equilibrium_reaction_energy_per_atom": [0.0]}