{"includesElement": ["", "F", "K"], "includesElement___series_id": [6, 3], "includesElement__abundance_crust": [585.0, 20900.0], "includesElement__atomic_number": [9, 19], "includesElement__atomic_radius": [50.0, 220.0], "includesElement__atomic_radius_rahm": [163.0, 234.0], "includesElement__atomic_volume": [17.1, 45.3], "includesElement__atomic_weight": [18.9984, 39.0983], "includesElement__covalent_radius_cordero": [57.0, 203.0], "includesElement__covalent_radius_pyykko": [64.0, 196.0], "includesElement__covalent_radius_pyykko_double": [59.0, 193.0], "includesElement__covalent_radius_pyykko_triple": [53.0], "includesElement__density": [0.001553, 0.89], "includesElement__dipole_polarizability": [3.74, 289.7], "includesElement__dipole_polarizability_unc": [0.08, 0.3], "includesElement__discovery_year": [1886, 1807], "includesElement__electron_affinity": [3.40119, 0.50147], "includesElement__electronegativity_allred-rochow": [0.001269531, 5.726781e-05], "includesElement__electronegativity_cottrell-sutton": [0.2850439, 0.1059457], "includesElement__electronegativity_ghosh": [0.344443, 0.0981896], "includesElement__electronegativity_gordy": [0.08125, 0.01122449], "includesElement__electronegativity_mulliken": [10.412, 2.421067], "includesElement__electronegativity_nagle": [1.232373, 0.1511299], "includesElement__electronegativity_pauling": [3.98, 0.82], "includesElement__electronegativity_sanderson": [1.017681, 0.1218383], "includesElement__en_ghosh": [0.344443, 0.0981896], "includesElement__en_pauling": [3.98, 0.82], "includesElement__evaporation_heat": [6.54, 2.33], "includesElement__fusion_heat": [0.51, 102.5], "includesElement__glawe_number": [102, 10], "includesElement__group_id": [17, 1], "includesElement__heat_of_formation": [79.335, 89.0], "includesElement__is_radioactive": [false], "includesElement__mendeleev_number": [106, 3], "includesElement__molar_heat_capacity": [31.304, 29.6], "includesElement__period": [2, 4], "includesElement__pettifor_number": [102, 10], "includesElement__specific_heat_capacity": [0.824, 0.757], "includesElement__vdw_radius": [147.0, 275.0], "includesElement__vdw_radius_alvarez": [146.0, 273.0], "includesElement__vdw_radius_mm3": [171.0, 309.0], "includesElement__vdw_radius_uff": [336.4, 381.2], "includesElement__abundance_sea": [1.3, 399.0], "includesElement__atomic_weight_uncertainty": [6e-09, 0.0001], "includesElement__c6_gb": [10.2, 3910.0], "includesElement__covalent_radius_bragg": [67.0, 207.0], "includesElement__electronegativity_allen": [24.8, 4.34], "includesElement__en_allen": [24.8, 4.34], "includesElement__thermal_conductivity": [0.028, 79.0], "includesElement__vdw_radius_batsanov": [150.0, 280.0], "includesElement__c6": [9.52, 3923.0], "includesElement__is_monoisotopic": [true], "includesElement__vdw_radius_dreiding": [347.2], "includesElement__gas_basicity": [315.1], "includesElement__proton_affinity": [340.1], "includesElement__vdw_radius_bondi": [147.0, 275.0], "includesElement__vdw_radius_rt": [146.0], "includesElement__lattice_constant": [5.23], "includesElement__metallic_radius": [203.0], "includesElement__metallic_radius_c12": [235.0], "formula": ["F1K1"], "spacegroup": ["221"], "thermalConductivity": [1.74494], "icsd": ["61558"], "band_gap": [6.2747], "density": [2.787183], "density_atomic": [17.30633], "deprecated": [false], "efermi": [-1.663904], "energy_above_hull": [0.1030207], "energy_per_atom": [-7.385459], "formation_energy_per_atom": [-2.8145], "homogeneous_poisson": [0.317], "is_gap_direct": [false], "is_magnetic": [false], "is_metal": [false], "is_stable": [false], "nelements": [2], "nsites": [2], "num_magnetic_sites": [0], "num_unique_magnetic_sites": [0], "theoretical": [false], "total_magnetization": [1.7e-06], "total_magnetization_normalized_formula_units": [1.7e-06], "total_magnetization_normalized_vol": [4.911496e-08], "uncorrected_energy_per_atom": [-4.112839], "universal_anisotropy": [7.481], "volume": [34.61267], "cbm": [4.2314], "vbm": [-2.0433]}