{"includesElement": ["", "Zr", "Pt"], "includesElement___series_id": [8], "includesElement__abundance_crust": [165.0, 0.005], "includesElement__atomic_number": [40, 78], "includesElement__atomic_radius": [155.0, 135.0], "includesElement__atomic_radius_rahm": [269.0, 230.0], "includesElement__atomic_volume": [14.1, 9.1], "includesElement__atomic_weight": [91.224, 195.084], "includesElement__covalent_radius_cordero": [175.0, 136.0], "includesElement__covalent_radius_pyykko": [154.0, 123.0], "includesElement__covalent_radius_pyykko_double": [127.0, 112.0], "includesElement__covalent_radius_pyykko_triple": [121.0, 110.0], "includesElement__density": [6.52, 21.5], "includesElement__dipole_polarizability": [112.0, 48.0], "includesElement__dipole_polarizability_unc": [13.0, 4.0], "includesElement__discovery_year": [1789, 1735], "includesElement__electron_affinity": [0.426, 2.128], "includesElement__electronegativity_allred-rochow": [0.0001328217, 0.0002346487], "includesElement__electronegativity_cottrell-sutton": [0.1430194, 0.1698876], "includesElement__electronegativity_ghosh": [0.1248887, 0.25691], "includesElement__electronegativity_gordy": [0.02045455, 0.02886179], "includesElement__electronegativity_mulliken": [3.52995, 5.543415], "includesElement__electronegativity_nagle": [0.3293169, 0.5928156], "includesElement__electronegativity_pauling": [1.33, 2.2], "includesElement__electronegativity_sanderson": [0.4744467, 1.45101], "includesElement__en_ghosh": [0.1248887, 0.25691], "includesElement__en_pauling": [1.33, 2.2], "includesElement__evaporation_heat": [567.0, 470.0], "includesElement__fusion_heat": [19.2, 21.76], "includesElement__glawe_number": [49, 64], "includesElement__group_id": [4, 10], "includesElement__heat_of_formation": [610.0, 565.7], "includesElement__is_radioactive": [false], "includesElement__lattice_constant": [3.23, 3.92], "includesElement__mendeleev_number": [44, 69], "includesElement__molar_heat_capacity": [25.36, 25.86], "includesElement__period": [5, 6], "includesElement__pettifor_number": [49, 68], "includesElement__specific_heat_capacity": [0.278, 0.133], "includesElement__vdw_radius": [223.0, 213.0], "includesElement__vdw_radius_alvarez": [252.0, 229.0], "includesElement__vdw_radius_mm3": [254.0, 239.0], "includesElement__vdw_radius_uff": [312.4, 275.4], "includesElement__abundance_sea": [3e-05], "includesElement__atomic_weight_uncertainty": [0.002, 0.009], "includesElement__c6_gb": [1360.0, 470.0], "includesElement__electronegativity_allen": [7.808, 10.16], "includesElement__en_allen": [7.808, 10.16], "includesElement__metallic_radius": [145.0, 130.0], "includesElement__metallic_radius_c12": [160.0, 139.0], "includesElement__thermal_conductivity": [22.7, 71.6], "includesElement__vdw_radius_batsanov": [230.0, 205.0], "formula": ["Pt3Zr1"], "spacegroup": ["221"], "thermalConductivity": [8.97856], "icsd": ["105858"], "band_gap": [0.0], "density": [17.22716], "density_atomic": [16.30151], "deprecated": [false], "efermi": [7.605636], "energy_above_hull": [0.01684256], "energy_per_atom": [-45.42539], "formation_energy_per_atom": [-1.122151], "homogeneous_poisson": [0.297], "is_gap_direct": [false], "is_magnetic": [false], "is_metal": [true], "is_stable": [false], "nelements": [2], "nsites": [4], "num_magnetic_sites": [0], "num_unique_magnetic_sites": [0], "theoretical": [false], "total_magnetization": [2.2e-06], "total_magnetization_normalized_formula_units": [2.2e-06], "total_magnetization_normalized_vol": [3.37392e-08], "uncorrected_energy_per_atom": [-45.42539], "universal_anisotropy": [0.14], "volume": [65.20605]}