{"includesElement": ["", "N", "Ta"], "includesElement___series_id": [1, 8], "includesElement__abundance_crust": [19.0, 2.0], "includesElement__atomic_number": [7, 73], "includesElement__atomic_radius": [65.0, 145.0], "includesElement__atomic_radius_rahm": [179.0, 258.0], "includesElement__atomic_volume": [17.3, 10.9], "includesElement__atomic_weight": [14.007, 180.9479], "includesElement__covalent_radius_cordero": [71.0, 170.0], "includesElement__covalent_radius_pyykko": [71.0, 146.0], "includesElement__covalent_radius_pyykko_double": [60.0, 126.0], "includesElement__covalent_radius_pyykko_triple": [54.0, 119.0], "includesElement__density": [0.001145, 16.4], "includesElement__dipole_polarizability": [7.4, 74.0], "includesElement__dipole_polarizability_unc": [0.2, 20.0], "includesElement__discovery_year": [1772, 1802], "includesElement__electron_affinity": [-1.4, 0.322], "includesElement__electronegativity_allred-rochow": [0.000773656, 0.0001548133], "includesElement__electronegativity_cottrell-sutton": [0.2343706, 0.1503421], "includesElement__electronegativity_ghosh": [0.26493, 0.234581], "includesElement__electronegativity_gordy": [0.05492958, 0.02260274], "includesElement__electronegativity_mulliken": [6.567065, 3.935785], "includesElement__electronegativity_nagle": [0.8774979, 0.4072985], "includesElement__electronegativity_pauling": [3.04, 1.5], "includesElement__electronegativity_sanderson": [0.577482, 0.8358832], "includesElement__en_ghosh": [0.26493, 0.234581], "includesElement__en_pauling": [3.04, 1.5], "includesElement__glawe_number": [88, 52], "includesElement__group_id": [15, 5], "includesElement__heat_of_formation": [472.44, 782.0], "includesElement__is_radioactive": [false], "includesElement__lattice_constant": [4.039, 3.31], "includesElement__mendeleev_number": [93, 49], "includesElement__molar_heat_capacity": [29.124, 25.36], "includesElement__period": [2, 6], "includesElement__pettifor_number": [100, 53], "includesElement__specific_heat_capacity": [1.04, 0.14], "includesElement__vdw_radius": [155.0, 222.0], "includesElement__vdw_radius_alvarez": [166.0, 253.0], "includesElement__vdw_radius_mm3": [193.0, 243.0], "includesElement__vdw_radius_uff": [366.0, 317.0], "includesElement__abundance_sea": [0.5, 2e-06], "includesElement__c6_gb": [25.7, 887.0], "includesElement__covalent_radius_bragg": [65.0], "includesElement__electronegativity_allen": [18.13, 7.93], "includesElement__en_allen": [18.13, 7.93], "includesElement__metallic_radius_c12": [53.0, 146.0], "includesElement__thermal_conductivity": [0.026, 57.5], "includesElement__vdw_radius_batsanov": [160.0, 220.0], "includesElement__c6": [24.2], "includesElement__vdw_radius_dreiding": [366.21], "includesElement__gas_basicity": [318.7], "includesElement__proton_affinity": [342.2], "includesElement__vdw_radius_bondi": [155.0], "includesElement__vdw_radius_rt": [164.0], "includesElement__evaporation_heat": [758.0], "includesElement__fusion_heat": [24.7], "includesElement__atomic_weight_uncertainty": [2e-05], "includesElement__metallic_radius": [134.0], "formula": ["N2Ta2"], "spacegroup": ["194"], "thermalConductivity": [25.5906], "icsd": ["105123"], "band_gap": [0.0], "density": [14.80212], "density_atomic": [10.93525], "deprecated": [false], "efermi": [8.113236], "energy_above_hull": [0.2424908], "energy_per_atom": [-29.97651], "formation_energy_per_atom": [-1.116215], "homogeneous_poisson": [0.262], "is_gap_direct": [false], "is_magnetic": [false], "is_metal": [true], "is_stable": [false], "nelements": [2], "nsites": [4], "num_magnetic_sites": [0], "num_unique_magnetic_sites": [0], "theoretical": [false], "total_magnetization": [6.21e-05], "total_magnetization_normalized_formula_units": [3.105e-05], "total_magnetization_normalized_vol": [1.419721e-06], "uncorrected_energy_per_atom": [-11.02673], "universal_anisotropy": [1.187], "volume": [43.74099]}