{"includesElement": ["", "S", "Nb"], "includesElement___series_id": [1, 8], "includesElement__abundance_crust": [350.0, 20.0], "includesElement__atomic_number": [16, 41], "includesElement__atomic_radius": [100.0, 145.0], "includesElement__atomic_radius_rahm": [214.0, 251.0], "includesElement__atomic_volume": [15.5, 10.8], "includesElement__atomic_weight": [32.06, 92.90637], "includesElement__covalent_radius_cordero": [105.0, 164.0], "includesElement__covalent_radius_pyykko": [103.0, 147.0], "includesElement__covalent_radius_pyykko_double": [94.0, 125.0], "includesElement__covalent_radius_pyykko_triple": [95.0, 116.0], "includesElement__density": [2.07, 8.57], "includesElement__dipole_polarizability": [19.4, 98.0], "includesElement__dipole_polarizability_unc": [0.1, 8.0], "includesElement__electron_affinity": [2.077104, 0.917406], "includesElement__electronegativity_allred-rochow": [0.0005137148, 0.0001295756], "includesElement__electronegativity_cottrell-sutton": [0.2300274, 0.1380131], "includesElement__electronegativity_ghosh": [0.23596, 0.1280782], "includesElement__electronegativity_gordy": [0.05291262, 0.01904762], "includesElement__electronegativity_mulliken": [6.218557, 3.838128], "includesElement__electronegativity_nagle": [0.6762644, 0.3708924], "includesElement__electronegativity_pauling": [2.58, 1.6], "includesElement__electronegativity_sanderson": [0.6397251, 0.5561695], "includesElement__en_ghosh": [0.23596, 0.1280782], "includesElement__en_pauling": [2.58, 1.6], "includesElement__evaporation_heat": [10.5, 680.0], "includesElement__fusion_heat": [1.23, 26.8], "includesElement__glawe_number": [96, 53], "includesElement__group_id": [16, 5], "includesElement__heat_of_formation": [277.17, 733.0], "includesElement__is_radioactive": [false], "includesElement__lattice_constant": [10.47, 3.3], "includesElement__mendeleev_number": [100, 48], "includesElement__molar_heat_capacity": [22.7, 24.6], "includesElement__period": [3, 5], "includesElement__pettifor_number": [94, 52], "includesElement__specific_heat_capacity": [0.708, 0.265], "includesElement__vdw_radius": [180.0, 218.0], "includesElement__vdw_radius_alvarez": [189.0, 256.0], "includesElement__vdw_radius_mm3": [215.0, 243.0], "includesElement__vdw_radius_uff": [403.5, 316.5], "includesElement__abundance_sea": [905.0, 1e-05], "includesElement__c6_gb": [140.0, 1140.0], "includesElement__covalent_radius_bragg": [102.0], "includesElement__electronegativity_allen": [15.31, 8.34], "includesElement__en_allen": [15.31, 8.34], "includesElement__metallic_radius": [104.0, 134.0], "includesElement__metallic_radius_c12": [127.0, 146.0], "includesElement__thermal_conductivity": [0.27, 53.7], "includesElement__vdw_radius_batsanov": [180.0, 215.0], "includesElement__c6": [134.0], "includesElement__vdw_radius_dreiding": [403.0], "includesElement__gas_basicity": [640.2], "includesElement__proton_affinity": [664.3], "includesElement__vdw_radius_bondi": [180.0], "includesElement__vdw_radius_rt": [181.0], "includesElement__discovery_year": [1801], "includesElement__atomic_weight_uncertainty": [2e-05], "includesElement__is_monoisotopic": [true], "formula": ["Nb2S2"], "spacegroup": ["194"], "thermalConductivity": [16.6184], "icsd": ["44992"], "band_gap": [0.0], "density": [6.564374], "density_atomic": [15.80652], "deprecated": [false], "efermi": [7.90156], "energy_above_hull": [0.06572968], "energy_per_atom": [-8.271837], "formation_energy_per_atom": [-1.152005], "homogeneous_poisson": [0.262], "is_gap_direct": [false], "is_magnetic": [false], "is_metal": [true], "is_stable": [false], "nelements": [2], "nsites": [4], "num_magnetic_sites": [0], "num_unique_magnetic_sites": [0], "theoretical": [false], "total_magnetization": [4e-07], "total_magnetization_normalized_formula_units": [2e-07], "total_magnetization_normalized_vol": [6.326502e-09], "uncorrected_energy_per_atom": [-17.38632], "universal_anisotropy": [1.036], "volume": [63.22609]}