{"includesElement": ["", "Bi"], "includesElement___series_id": [7], "includesElement__abundance_crust": [0.0085], "includesElement__atomic_number": [83], "includesElement__atomic_radius": [160.0], "includesElement__atomic_radius_rahm": [250.0], "includesElement__atomic_volume": [21.3], "includesElement__atomic_weight": [208.9804], "includesElement__covalent_radius_cordero": [148.0], "includesElement__covalent_radius_pyykko": [151.0], "includesElement__covalent_radius_pyykko_double": [141.0], "includesElement__covalent_radius_pyykko_triple": [135.0], "includesElement__density": [9.79], "includesElement__dipole_polarizability": [48.0], "includesElement__dipole_polarizability_unc": [4.0], "includesElement__electron_affinity": [0.942362], "includesElement__electronegativity_allred-rochow": [0.0002763037], "includesElement__electronegativity_cottrell-sutton": [0.2042593], "includesElement__electronegativity_ghosh": [0.182377], "includesElement__electronegativity_gordy": [0.04172185], "includesElement__electronegativity_mulliken": [4.113939], "includesElement__electronegativity_nagle": [0.470518], "includesElement__electronegativity_pauling": [1.9], "includesElement__electronegativity_sanderson": [0.8136501], "includesElement__en_ghosh": [0.182377], "includesElement__en_pauling": [1.9], "includesElement__evaporation_heat": [172.0], "includesElement__fusion_heat": [11.0], "includesElement__glawe_number": [92], "includesElement__group_id": [15], "includesElement__heat_of_formation": [209.6], "includesElement__is_radioactive": [false], "includesElement__lattice_constant": [4.75], "includesElement__mendeleev_number": [97], "includesElement__molar_heat_capacity": [25.52], "includesElement__period": [6], "includesElement__pettifor_number": [87], "includesElement__specific_heat_capacity": [0.122], "includesElement__vdw_radius": [207.0], "includesElement__vdw_radius_alvarez": [254.0], "includesElement__vdw_radius_mm3": [266.0], "includesElement__vdw_radius_uff": [437.0], "includesElement__abundance_sea": [2e-05], "includesElement__atomic_weight_uncertainty": [1e-05], "includesElement__c6_gb": [513.0], "includesElement__covalent_radius_bragg": [148.0], "includesElement__electronegativity_allen": [11.9], "includesElement__en_allen": [11.9], "includesElement__metallic_radius": [151.0], "includesElement__metallic_radius_c12": [178.0], "includesElement__thermal_conductivity": [7.9], "includesElement__vdw_radius_batsanov": [230.0], "includesElement__is_monoisotopic": [true], "includesElement__vdw_radius_truhlar": [207.0], "formula": ["Bi1"], "spacegroup": ["221"], "thermalConductivity": [3.10233], "icsd": ["52724"], "band_gap": [0.0], "density": [10.10913], "density_atomic": [34.32738], "deprecated": [false], "efermi": [5.134078], "energy_above_hull": [0.0], "energy_per_atom": [-3.840489], "formation_energy_per_atom": [0.0], "has_reconstructed": [false], "homogeneous_poisson": [0.34], "is_gap_direct": [false], "is_magnetic": [false], "is_metal": [true], "is_stable": [true], "nelements": [1], "nsites": [4], "num_magnetic_sites": [0], "num_unique_magnetic_sites": [0], "shape_factor": [5.56733], "surface_anisotropy": [0.0898001], "theoretical": [false], "total_magnetization": [0.0], "total_magnetization_normalized_formula_units": [0.0], "total_magnetization_normalized_vol": [0.0], "uncorrected_energy_per_atom": [-3.840489], "universal_anisotropy": [9.198], "volume": [137.3095], "weighted_surface_energy": [0.07989327], "weighted_surface_energy_EV_PER_ANG2": [0.004986546], "weighted_work_function": [3.967201], "equilibrium_reaction_energy_per_atom": [0.0]}