{"includesElement": ["", "Er", "H"], "includesElement___series_id": [9, 1], "includesElement__abundance_crust": [3.5, 1400.0], "includesElement__atomic_number": [68, 1], "includesElement__atomic_radius": [175.0, 25.0], "includesElement__atomic_radius_rahm": [272.0, 154.0], "includesElement__atomic_volume": [18.4, 14.1], "includesElement__atomic_weight": [167.259, 1.008], "includesElement__covalent_radius_cordero": [189.0, 31.0], "includesElement__covalent_radius_pyykko": [165.0, 32.0], "includesElement__covalent_radius_pyykko_double": [133.0], "includesElement__density": [9.07, 8.2e-05], "includesElement__dipole_polarizability": [150.0, 4.50711], "includesElement__dipole_polarizability_unc": [10.0, 3e-05], "includesElement__discovery_year": [1843, 1766], "includesElement__electronegativity_allred-rochow": [0.0001046832, 0.0009765625], "includesElement__electronegativity_cottrell-sutton": [0.1314257, 0.1767767], "includesElement__electronegativity_ghosh": [0.212261, 0.2638], "includesElement__electronegativity_gordy": [0.01727273, 0.03125], "includesElement__electronegativity_mulliken": [3.05385, 7.176315], "includesElement__electronegativity_nagle": [0.4536061, 0.6053882], "includesElement__electronegativity_pauling": [1.24, 2.2], "includesElement__electronegativity_sanderson": [0.5576573, 2.187771], "includesElement__en_ghosh": [0.212261, 0.2638], "includesElement__en_pauling": [1.24, 2.2], "includesElement__evaporation_heat": [317.0, 0.904], "includesElement__glawe_number": [22, 103], "includesElement__heat_of_formation": [316.4, 217.998], "includesElement__is_radioactive": [false], "includesElement__lattice_constant": [3.56, 3.75], "includesElement__mendeleev_number": [35, 105], "includesElement__molar_heat_capacity": [28.12, 28.836], "includesElement__period": [6, 1], "includesElement__pettifor_number": [23, 103], "includesElement__specific_heat_capacity": [0.168, 14.304], "includesElement__vdw_radius": [229.0, 110.0], "includesElement__vdw_radius_alvarez": [283.0, 120.0], "includesElement__vdw_radius_mm3": [267.0, 162.0], "includesElement__vdw_radius_uff": [339.1, 288.6], "includesElement__abundance_sea": [8.7e-07, 108000.0], "includesElement__atomic_weight_uncertainty": [0.003], "includesElement__c6_gb": [2150.0, 6.51], "includesElement__electron_affinity": [0.754195], "includesElement__fusion_heat": [0.117], "includesElement__group_id": [1], "includesElement__electronegativity_allen": [13.61], "includesElement__en_allen": [13.61], "includesElement__metallic_radius_c12": [78.0], "includesElement__thermal_conductivity": [0.1815], "includesElement__c6": [6.499027], "includesElement__vdw_radius_dreiding": [319.5], "includesElement__vdw_radius_bondi": [120.0], "includesElement__vdw_radius_rt": [110.0], "formula": ["Er1H2"], "spacegroup": ["225"], "thermalConductivity": [9.63809], "icsd": ["103243"], "band_gap": [0.0], "density": [8.494681], "density_atomic": [11.02994], "deprecated": [false], "efermi": [3.172077], "energy_above_hull": [0.0], "energy_per_atom": [-14.40883], "formation_energy_per_atom": [-0.7969418], "homogeneous_poisson": [0.235], "is_gap_direct": [false], "is_magnetic": [false], "is_metal": [true], "is_stable": [true], "nelements": [2], "nsites": [3], "num_magnetic_sites": [0], "num_unique_magnetic_sites": [0], "theoretical": [false], "total_magnetization": [4.37e-05], "total_magnetization_normalized_formula_units": [4.37e-05], "total_magnetization_normalized_vol": [1.320648e-06], "uncorrected_energy_per_atom": [-14.40883], "universal_anisotropy": [0.543], "volume": [33.08983], "equilibrium_reaction_energy_per_atom": [-0.1562926]}