{"includesElement": ["", "V", "Te"], "includesElement___series_id": [8, 5], "includesElement__abundance_crust": [120.0, 0.001], "includesElement__atomic_number": [23, 52], "includesElement__atomic_radius": [135.0, 140.0], "includesElement__atomic_radius_rahm": [252.0, 242.0], "includesElement__atomic_volume": [8.35, 20.5], "includesElement__atomic_weight": [50.9415, 127.6], "includesElement__covalent_radius_cordero": [153.0, 138.0], "includesElement__covalent_radius_pyykko": [134.0, 136.0], "includesElement__covalent_radius_pyykko_double": [112.0, 128.0], "includesElement__covalent_radius_pyykko_triple": [106.0, 121.0], "includesElement__density": [6.0, 6.232], "includesElement__dipole_polarizability": [87.0, 38.0], "includesElement__dipole_polarizability_unc": [10.0, 4.0], "includesElement__discovery_year": [1830, 1782], "includesElement__electron_affinity": [0.525, 1.970876], "includesElement__electronegativity_allred-rochow": [0.0001837826, 0.0003757569], "includesElement__electronegativity_cottrell-sutton": [0.1569295, 0.2260596], "includesElement__electronegativity_ghosh": [0.1273344, 0.2056992], "includesElement__electronegativity_gordy": [0.02462687, 0.05110294], "includesElement__electronegativity_mulliken": [3.635594, 5.490268], "includesElement__electronegativity_nagle": [0.3859078, 0.5404919], "includesElement__electronegativity_pauling": [1.63, 2.1], "includesElement__electronegativity_sanderson": [0.4388898, 0.8622506], "includesElement__en_ghosh": [0.1273344, 0.2056992], "includesElement__en_pauling": [1.63, 2.1], "includesElement__evaporation_heat": [460.0, 49.8], "includesElement__fusion_heat": [17.5, 17.91], "includesElement__glawe_number": [54, 94], "includesElement__group_id": [5, 16], "includesElement__heat_of_formation": [515.5, 196.6], "includesElement__is_radioactive": [false], "includesElement__lattice_constant": [3.02, 4.45], "includesElement__mendeleev_number": [47, 102], "includesElement__molar_heat_capacity": [24.89, 25.73], "includesElement__period": [4, 5], "includesElement__pettifor_number": [54, 92], "includesElement__specific_heat_capacity": [0.489, 0.202], "includesElement__vdw_radius": [207.0, 206.0], "includesElement__vdw_radius_alvarez": [242.0, 199.0], "includesElement__vdw_radius_mm3": [229.0, 244.0], "includesElement__vdw_radius_uff": [314.4, 447.0], "includesElement__abundance_sea": [0.0025], "includesElement__atomic_weight_uncertainty": [0.0001, 0.03], "includesElement__c6_gb": [955.0, 471.0], "includesElement__electronegativity_allen": [9.063, 12.76], "includesElement__en_allen": [9.063, 12.76], "includesElement__metallic_radius": [122.0, 137.0], "includesElement__metallic_radius_c12": [134.0, 160.0], "includesElement__thermal_conductivity": [30.7, 14.3], "includesElement__vdw_radius_batsanov": [205.0, 210.0], "includesElement__c6": [832.0, 445.0], "includesElement__gas_basicity": [836.8], "includesElement__proton_affinity": [859.4], "includesElement__covalent_radius_bragg": [133.0], "includesElement__vdw_radius_dreiding": [423.0], "includesElement__vdw_radius_bondi": [206.0], "formula": ["Te2V2"], "spacegroup": ["194"], "thermalConductivity": [3.95089], "icsd": ["52509"], "band_gap": [0.0], "density": [6.681206], "density_atomic": [22.18725], "deprecated": [false], "efermi": [7.329244], "energy_above_hull": [0.1504143], "energy_per_atom": [-6.491745], "formation_energy_per_atom": [-0.3781386], "homogeneous_poisson": [0.234], "is_gap_direct": [false], "is_magnetic": [true], "is_metal": [true], "is_stable": [false], "nelements": [2], "nsites": [4], "num_magnetic_sites": [2], "num_unique_magnetic_sites": [1], "theoretical": [false], "total_magnetization": [5.053165], "total_magnetization_normalized_formula_units": [2.526582], "total_magnetization_normalized_vol": [0.05693772], "uncorrected_energy_per_atom": [-6.280745], "universal_anisotropy": [0.767], "volume": [88.74898]}