{"includesElement": ["", "N", "Nd"], "includesElement___series_id": [1, 9], "includesElement__abundance_crust": [19.0, 41.5], "includesElement__atomic_number": [7, 60], "includesElement__atomic_radius": [65.0, 185.0], "includesElement__atomic_radius_rahm": [179.0, 284.0], "includesElement__atomic_volume": [17.3, 20.6], "includesElement__atomic_weight": [14.007, 144.242], "includesElement__covalent_radius_cordero": [71.0, 201.0], "includesElement__covalent_radius_pyykko": [71.0, 174.0], "includesElement__covalent_radius_pyykko_double": [60.0, 137.0], "includesElement__covalent_radius_pyykko_triple": [54.0], "includesElement__density": [0.001145, 7.01], "includesElement__dipole_polarizability": [7.4, 208.0], "includesElement__dipole_polarizability_unc": [0.2, 20.0], "includesElement__discovery_year": [1772, 1925], "includesElement__electron_affinity": [-1.4, 1.916], "includesElement__electronegativity_allred-rochow": [0.000773656, 9.413397e-05], "includesElement__electronegativity_cottrell-sutton": [0.2343706, 0.1279817], "includesElement__electronegativity_ghosh": [0.26493, 0.176539], "includesElement__electronegativity_gordy": [0.05492958, 0.01637931], "includesElement__electronegativity_mulliken": [6.567065, 3.7205], "includesElement__electronegativity_nagle": [0.8774979, 0.3066874], "includesElement__electronegativity_pauling": [3.04, 1.14], "includesElement__electronegativity_sanderson": [0.577482, 0.447218], "includesElement__en_ghosh": [0.26493, 0.176539], "includesElement__en_pauling": [3.04, 1.14], "includesElement__glawe_number": [88, 29], "includesElement__group_id": [15], "includesElement__heat_of_formation": [472.44, 326.9], "includesElement__is_radioactive": [false], "includesElement__lattice_constant": [4.039, 3.66], "includesElement__mendeleev_number": [93, 19], "includesElement__molar_heat_capacity": [29.124, 27.45], "includesElement__period": [2, 6], "includesElement__pettifor_number": [100, 30], "includesElement__specific_heat_capacity": [1.04, 0.19], "includesElement__vdw_radius": [155.0, 239.0], "includesElement__vdw_radius_alvarez": [166.0, 295.0], "includesElement__vdw_radius_mm3": [193.0, 273.0], "includesElement__vdw_radius_uff": [366.0, 357.5], "includesElement__abundance_sea": [0.5, 2.8e-06], "includesElement__c6_gb": [25.7, 3560.0], "includesElement__covalent_radius_bragg": [65.0], "includesElement__electronegativity_allen": [18.13], "includesElement__en_allen": [18.13], "includesElement__metallic_radius_c12": [53.0], "includesElement__thermal_conductivity": [0.026], "includesElement__vdw_radius_batsanov": [160.0], "includesElement__c6": [24.2], "includesElement__vdw_radius_dreiding": [366.21], "includesElement__gas_basicity": [318.7], "includesElement__proton_affinity": [342.2], "includesElement__vdw_radius_bondi": [155.0], "includesElement__vdw_radius_rt": [164.0], "includesElement__evaporation_heat": [289.0], "includesElement__fusion_heat": [7.1], "includesElement__atomic_weight_uncertainty": [0.003], "formula": ["N1Nd1"], "spacegroup": ["225"], "thermalConductivity": [21.1341], "icsd": ["169200"], "band_gap": [0.0], "density": [7.665173], "density_atomic": [17.14105], "deprecated": [false], "efermi": [3.781293], "energy_above_hull": [0.0], "energy_per_atom": [-20.90608], "formation_energy_per_atom": [-1.6327], "is_gap_direct": [false], "is_magnetic": [false], "is_metal": [true], "is_stable": [true], "nelements": [2], "nsites": [2], "num_magnetic_sites": [0], "num_unique_magnetic_sites": [0], "theoretical": [false], "total_magnetization": [0.0], "total_magnetization_normalized_formula_units": [0.0], "total_magnetization_normalized_vol": [0.0], "uncorrected_energy_per_atom": [-20.90608], "volume": [34.28209], "equilibrium_reaction_energy_per_atom": [-1.6327]}