{"includesElement": ["", "Ag", "F"], "includesElement___series_id": [8, 6], "includesElement__abundance_crust": [0.075, 585.0], "includesElement__atomic_number": [47, 9], "includesElement__atomic_radius": [160.0, 50.0], "includesElement__atomic_radius_rahm": [225.0, 163.0], "includesElement__atomic_volume": [10.3, 17.1], "includesElement__atomic_weight": [107.8682, 18.9984], "includesElement__covalent_radius_cordero": [145.0, 57.0], "includesElement__covalent_radius_pyykko": [128.0, 64.0], "includesElement__covalent_radius_pyykko_double": [139.0, 59.0], "includesElement__covalent_radius_pyykko_triple": [137.0, 53.0], "includesElement__density": [10.5, 0.001553], "includesElement__dipole_polarizability": [55.0, 3.74], "includesElement__dipole_polarizability_unc": [8.0, 0.08], "includesElement__electron_affinity": [1.302, 3.40119], "includesElement__electronegativity_allred-rochow": [0.0002258301, 0.001269531], "includesElement__electronegativity_cottrell-sutton": [0.1700184, 0.2850439], "includesElement__electronegativity_ghosh": [0.1472165, 0.344443], "includesElement__electronegativity_gordy": [0.02890625, 0.08125], "includesElement__electronegativity_mulliken": [4.439117, 10.412], "includesElement__electronegativity_nagle": [0.5848035, 1.232373], "includesElement__electronegativity_pauling": [1.93, 3.98], "includesElement__electronegativity_sanderson": [0.9437955, 1.017681], "includesElement__en_ghosh": [0.1472165, 0.344443], "includesElement__en_pauling": [1.93, 3.98], "includesElement__evaporation_heat": [254.1, 6.54], "includesElement__fusion_heat": [11.95, 0.51], "includesElement__glawe_number": [67, 102], "includesElement__group_id": [11, 17], "includesElement__heat_of_formation": [284.9, 79.335], "includesElement__is_radioactive": [false], "includesElement__lattice_constant": [4.09], "includesElement__mendeleev_number": [72, 106], "includesElement__molar_heat_capacity": [25.35, 31.304], "includesElement__period": [5, 2], "includesElement__pettifor_number": [71, 102], "includesElement__specific_heat_capacity": [0.235, 0.824], "includesElement__vdw_radius": [211.0, 147.0], "includesElement__vdw_radius_alvarez": [253.0, 146.0], "includesElement__vdw_radius_mm3": [243.0, 171.0], "includesElement__vdw_radius_uff": [314.8, 336.4], "includesElement__abundance_sea": [4e-05, 1.3], "includesElement__atomic_weight_uncertainty": [0.0002, 6e-09], "includesElement__c6_gb": [341.0, 10.2], "includesElement__covalent_radius_bragg": [177.0, 67.0], "includesElement__electronegativity_allen": [11.05, 24.8], "includesElement__en_allen": [11.05, 24.8], "includesElement__metallic_radius": [134.0], "includesElement__metallic_radius_c12": [144.0], "includesElement__thermal_conductivity": [429.0, 0.028], "includesElement__vdw_radius_batsanov": [210.0, 150.0], "includesElement__discovery_year": [1886], "includesElement__c6": [9.52], "includesElement__is_monoisotopic": [true], "includesElement__vdw_radius_dreiding": [347.2], "includesElement__gas_basicity": [315.1], "includesElement__proton_affinity": [340.1], "includesElement__vdw_radius_bondi": [147.0], "includesElement__vdw_radius_rt": [146.0], "formula": ["Ag1F1"], "spacegroup": ["225"], "thermalConductivity": [0.404559], "icsd": ["18008"], "band_gap": [0.0], "density": [7.067923], "density_atomic": [14.90303], "deprecated": [false], "efermi": [-0.07892905], "energy_above_hull": [0.0], "energy_per_atom": [-13.36357], "formation_energy_per_atom": [-1.123802], "homogeneous_poisson": [0.636], "is_gap_direct": [false], "is_magnetic": [false], "is_metal": [true], "is_stable": [true], "nelements": [2], "nsites": [2], "num_magnetic_sites": [0], "num_unique_magnetic_sites": [0], "theoretical": [false], "total_magnetization": [5e-07], "total_magnetization_normalized_formula_units": [5e-07], "total_magnetization_normalized_vol": [1.677511e-08], "uncorrected_energy_per_atom": [-13.36357], "universal_anisotropy": [-4.887], "volume": [29.80606], "equilibrium_reaction_energy_per_atom": [-0.04764447]}