{"includesElement": ["", "Pt", "Ce"], "includesElement___series_id": [8, 9], "includesElement__abundance_crust": [0.005, 66.5], "includesElement__atomic_number": [78, 58], "includesElement__atomic_radius": [135.0, 185.0], "includesElement__atomic_radius_rahm": [230.0, 282.0], "includesElement__atomic_volume": [9.1, 21.0], "includesElement__atomic_weight": [195.084, 140.116], "includesElement__covalent_radius_cordero": [136.0, 204.0], "includesElement__covalent_radius_pyykko": [123.0, 163.0], "includesElement__covalent_radius_pyykko_double": [112.0, 137.0], "includesElement__covalent_radius_pyykko_triple": [110.0, 131.0], "includesElement__density": [21.5, 6.77], "includesElement__dipole_polarizability": [48.0, 205.0], "includesElement__dipole_polarizability_unc": [4.0, 20.0], "includesElement__discovery_year": [1735, 1803], "includesElement__electron_affinity": [2.128, 0.65], "includesElement__electronegativity_allred-rochow": [0.0002346487, 0.0001129135], "includesElement__electronegativity_cottrell-sutton": [0.1698876, 0.1356647], "includesElement__electronegativity_ghosh": [0.25691, 0.16761], "includesElement__electronegativity_gordy": [0.02886179, 0.01840491], "includesElement__electronegativity_mulliken": [5.543415, 3.0943], "includesElement__electronegativity_nagle": [0.5928156, 0.2692167], "includesElement__electronegativity_pauling": [2.2, 1.12], "includesElement__electronegativity_sanderson": [1.45101, 0.5356179], "includesElement__en_ghosh": [0.25691, 0.16761], "includesElement__en_pauling": [2.2, 1.12], "includesElement__evaporation_heat": [470.0, 398.0], "includesElement__fusion_heat": [21.76, 5.2], "includesElement__glawe_number": [64, 31], "includesElement__group_id": [10], "includesElement__heat_of_formation": [565.7, 420.1], "includesElement__is_radioactive": [false], "includesElement__lattice_constant": [3.92, 5.16], "includesElement__mendeleev_number": [69, 15], "includesElement__molar_heat_capacity": [25.86, 26.94], "includesElement__period": [6], "includesElement__pettifor_number": [68, 32], "includesElement__specific_heat_capacity": [0.133, 0.192], "includesElement__vdw_radius": [213.0, 242.0], "includesElement__vdw_radius_alvarez": [229.0, 288.0], "includesElement__vdw_radius_mm3": [239.0, 274.0], "includesElement__vdw_radius_uff": [275.4, 355.6], "includesElement__atomic_weight_uncertainty": [0.009, 0.001], "includesElement__c6_gb": [470.0, 3480.0], "includesElement__electronegativity_allen": [10.16], "includesElement__en_allen": [10.16], "includesElement__metallic_radius": [130.0], "includesElement__metallic_radius_c12": [139.0], "includesElement__thermal_conductivity": [71.6, 11.3], "includesElement__vdw_radius_batsanov": [205.0], "includesElement__abundance_sea": [1.2e-06], "formula": ["Ce1Pt3"], "spacegroup": ["221"], "thermalConductivity": [5.85664], "icsd": ["102258"], "band_gap": [0.0], "density": [16.86303], "density_atomic": [17.85714], "deprecated": [false], "efermi": [8.232846], "energy_above_hull": [0.0], "energy_per_atom": [-47.3582], "formation_energy_per_atom": [-1.032251], "is_gap_direct": [false], "is_magnetic": [true], "is_metal": [true], "is_stable": [true], "nelements": [2], "nsites": [4], "num_magnetic_sites": [1], "num_unique_magnetic_sites": [1], "theoretical": [false], "total_magnetization": [0.0875163], "total_magnetization_normalized_formula_units": [0.0875163], "total_magnetization_normalized_vol": [0.001225229], "uncorrected_energy_per_atom": [-47.3582], "volume": [71.42855], "equilibrium_reaction_energy_per_atom": [-0.05981225]}