{"includesElement": ["", "Cu", "Hf"], "includesElement___series_id": [8], "includesElement__abundance_crust": [60.0, 3.0], "includesElement__atomic_number": [29, 72], "includesElement__atomic_radius": [135.0, 155.0], "includesElement__atomic_radius_rahm": [217.0, 264.0], "includesElement__atomic_volume": [7.1, 13.6], "includesElement__atomic_weight": [63.546, 178.49], "includesElement__covalent_radius_cordero": [132.0, 175.0], "includesElement__covalent_radius_pyykko": [112.0, 152.0], "includesElement__covalent_radius_pyykko_double": [115.0, 128.0], "includesElement__covalent_radius_pyykko_triple": [120.0, 122.0], "includesElement__density": [8.96, 13.3], "includesElement__dipole_polarizability": [46.5, 103.0], "includesElement__dipole_polarizability_unc": [0.5, 6.0], "includesElement__electron_affinity": [1.235, 0.014], "includesElement__electronegativity_allred-rochow": [0.0002949617, 0.00013634], "includesElement__electronegativity_cottrell-sutton": [0.1817573, 0.1439572], "includesElement__electronegativity_ghosh": [0.1511716, 0.229987], "includesElement__electronegativity_gordy": [0.03303571, 0.02072368], "includesElement__electronegativity_mulliken": [4.48069, 3.419535], "includesElement__electronegativity_nagle": [0.6184623, 0.3386421], "includesElement__electronegativity_pauling": [1.9, 1.3], "includesElement__electronegativity_sanderson": [0.9175542, 0.7352125], "includesElement__en_ghosh": [0.1511716, 0.229987], "includesElement__en_pauling": [1.9, 1.3], "includesElement__evaporation_heat": [304.6, 575.0], "includesElement__fusion_heat": [13.01, 25.1], "includesElement__glawe_number": [68, 50], "includesElement__group_id": [11, 4], "includesElement__heat_of_formation": [337.4, 618.4], "includesElement__is_radioactive": [false], "includesElement__lattice_constant": [3.61, 3.2], "includesElement__mendeleev_number": [71, 45], "includesElement__molar_heat_capacity": [24.44, 25.73], "includesElement__period": [4, 6], "includesElement__pettifor_number": [72, 50], "includesElement__specific_heat_capacity": [0.385, 0.144], "includesElement__vdw_radius": [196.0, 223.0], "includesElement__vdw_radius_alvarez": [238.0, 263.0], "includesElement__vdw_radius_mm3": [226.0, 253.0], "includesElement__vdw_radius_uff": [349.5, 314.1], "includesElement__abundance_sea": [0.00025, 7e-06], "includesElement__atomic_weight_uncertainty": [0.003, 0.02], "includesElement__c6_gb": [264.0, 1040.0], "includesElement__covalent_radius_bragg": [137.0], "includesElement__electronegativity_allen": [10.96, 6.83], "includesElement__en_allen": [10.96, 6.83], "includesElement__metallic_radius": [118.0, 144.0], "includesElement__metallic_radius_c12": [128.0, 159.0], "includesElement__thermal_conductivity": [401.0, 23.0], "includesElement__vdw_radius_batsanov": [200.0, 225.0], "includesElement__c6": [253.0], "includesElement__gas_basicity": [632.4], "includesElement__proton_affinity": [655.3], "includesElement__discovery_year": [1923], "formula": ["Cu1Hf2"], "spacegroup": ["139"], "thermalConductivity": [11.052], "icsd": ["102966"], "band_gap": [0.0], "density": [12.63581], "density_atomic": [18.42118], "deprecated": [false], "efermi": [5.53252], "energy_above_hull": [0.0], "energy_per_atom": [-8.164468], "formation_energy_per_atom": [-0.1599393], "homogeneous_poisson": [0.309], "is_gap_direct": [false], "is_magnetic": [false], "is_metal": [true], "is_stable": [true], "nelements": [2], "nsites": [3], "num_magnetic_sites": [0], "num_unique_magnetic_sites": [0], "theoretical": [false], "total_magnetization": [0.0], "total_magnetization_normalized_formula_units": [0.0], "total_magnetization_normalized_vol": [0.0], "uncorrected_energy_per_atom": [-33.87562], "universal_anisotropy": [0.258], "volume": [55.26355], "equilibrium_reaction_energy_per_atom": [-0.05885658]}