{"includesElement": ["", "P", "Be"], "includesElement___series_id": [1, 4], "includesElement__abundance_crust": [1050.0, 2.8], "includesElement__atomic_number": [15, 4], "includesElement__atomic_radius": [100.0, 105.0], "includesElement__atomic_radius_rahm": [223.0, 219.0], "includesElement__atomic_volume": [17.0, 5.0], "includesElement__atomic_weight": [30.97376, 9.012183], "includesElement__covalent_radius_cordero": [107.0, 96.0], "includesElement__covalent_radius_pyykko": [111.0, 102.0], "includesElement__covalent_radius_pyykko_double": [102.0, 90.0], "includesElement__covalent_radius_pyykko_triple": [94.0, 85.0], "includesElement__density": [1.823, 1.85], "includesElement__dipole_polarizability": [25.0, 37.74], "includesElement__dipole_polarizability_unc": [1.0, 0.03], "includesElement__discovery_year": [1669, 1798], "includesElement__electron_affinity": [0.746607, -2.4], "includesElement__electronegativity_allred-rochow": [0.0003895788, 0.0001874279], "includesElement__electronegativity_cottrell-sutton": [0.2079501, 0.1382666], "includesElement__electronegativity_ghosh": [0.206931, 0.144986], "includesElement__electronegativity_gordy": [0.04324324, 0.01911765], "includesElement__electronegativity_mulliken": [5.616646, 3.461349], "includesElement__electronegativity_nagle": [0.5848035, 0.3756148], "includesElement__electronegativity_pauling": [2.19, 1.57], "includesElement__electronegativity_sanderson": [0.4510269, 0.1268473], "includesElement__en_ghosh": [0.206931, 0.144986], "includesElement__en_pauling": [2.19, 1.57], "includesElement__evaporation_heat": [49.8, 309.0], "includesElement__fusion_heat": [2.51, 12.21], "includesElement__glawe_number": [89, 77], "includesElement__group_id": [15, 2], "includesElement__heat_of_formation": [316.5, 324.0], "includesElement__is_radioactive": [false], "includesElement__lattice_constant": [7.17, 2.29], "includesElement__mendeleev_number": [94, 75], "includesElement__molar_heat_capacity": [23.824, 16.443], "includesElement__period": [3, 2], "includesElement__pettifor_number": [90, 77], "includesElement__specific_heat_capacity": [0.769, 1.825], "includesElement__vdw_radius": [180.0, 153.0], "includesElement__vdw_radius_alvarez": [190.0, 198.0], "includesElement__vdw_radius_mm3": [222.0, 223.0], "includesElement__vdw_radius_uff": [414.7, 274.5], "includesElement__abundance_sea": [0.06, 5.6e-06], "includesElement__atomic_weight_uncertainty": [5e-09, 5e-07], "includesElement__c6_gb": [187.0, 214.0], "includesElement__electronegativity_allen": [13.33, 9.323], "includesElement__en_allen": [13.33, 9.323], "includesElement__metallic_radius": [110.0, 89.0], "includesElement__metallic_radius_c12": [128.0, 112.0], "includesElement__vdw_radius_batsanov": [195.0, 190.0], "includesElement__c6": [185.0, 227.0], "includesElement__is_monoisotopic": [true], "includesElement__vdw_radius_dreiding": [415.0], "includesElement__gas_basicity": [604.8], "includesElement__proton_affinity": [626.8], "includesElement__vdw_radius_bondi": [180.0], "includesElement__covalent_radius_bragg": [115.0], "includesElement__thermal_conductivity": [201.0], "includesElement__vdw_radius_truhlar": [153.0], "formula": ["Be24P16"], "spacegroup": ["206"], "thermalConductivity": [6.2643], "icsd": ["616384"], "band_gap": [0.8891], "density": [2.231496], "density_atomic": [13.24327], "deprecated": [false], "efermi": [5.079212], "energy_above_hull": [0.0], "energy_per_atom": [-4.641199], "formation_energy_per_atom": [-0.2313617], "homogeneous_poisson": [0.19], "is_gap_direct": [true], "is_magnetic": [false], "is_metal": [false], "is_stable": [true], "nelements": [2], "nsites": [40], "num_magnetic_sites": [0], "num_unique_magnetic_sites": [0], "theoretical": [false], "total_magnetization": [0.0], "total_magnetization_normalized_formula_units": [0.0], "total_magnetization_normalized_vol": [0.0], "uncorrected_energy_per_atom": [-6.501529], "universal_anisotropy": [0.365], "volume": [529.7308], "cbm": [5.891], "e_electronic": [10.07108], "e_ionic": [6.993698], "e_total": [17.06478], "equilibrium_reaction_energy_per_atom": [-0.03973181], "n": [3.173497], "vbm": [5.0019]}