{"includesElement": ["", "Cu", "Zr"], "includesElement___series_id": [8], "includesElement__abundance_crust": [60.0, 165.0], "includesElement__atomic_number": [29, 40], "includesElement__atomic_radius": [135.0, 155.0], "includesElement__atomic_radius_rahm": [217.0, 269.0], "includesElement__atomic_volume": [7.1, 14.1], "includesElement__atomic_weight": [63.546, 91.224], "includesElement__covalent_radius_cordero": [132.0, 175.0], "includesElement__covalent_radius_pyykko": [112.0, 154.0], "includesElement__covalent_radius_pyykko_double": [115.0, 127.0], "includesElement__covalent_radius_pyykko_triple": [120.0, 121.0], "includesElement__density": [8.96, 6.52], "includesElement__dipole_polarizability": [46.5, 112.0], "includesElement__dipole_polarizability_unc": [0.5, 13.0], "includesElement__electron_affinity": [1.235, 0.426], "includesElement__electronegativity_allred-rochow": [0.0002949617, 0.0001328217], "includesElement__electronegativity_cottrell-sutton": [0.1817573, 0.1430194], "includesElement__electronegativity_ghosh": [0.1511716, 0.1248887], "includesElement__electronegativity_gordy": [0.03303571, 0.02045455], "includesElement__electronegativity_mulliken": [4.48069, 3.52995], "includesElement__electronegativity_nagle": [0.6184623, 0.3293169], "includesElement__electronegativity_pauling": [1.9, 1.33], "includesElement__electronegativity_sanderson": [0.9175542, 0.4744467], "includesElement__en_ghosh": [0.1511716, 0.1248887], "includesElement__en_pauling": [1.9, 1.33], "includesElement__evaporation_heat": [304.6, 567.0], "includesElement__fusion_heat": [13.01, 19.2], "includesElement__glawe_number": [68, 49], "includesElement__group_id": [11, 4], "includesElement__heat_of_formation": [337.4, 610.0], "includesElement__is_radioactive": [false], "includesElement__lattice_constant": [3.61, 3.23], "includesElement__mendeleev_number": [71, 44], "includesElement__molar_heat_capacity": [24.44, 25.36], "includesElement__period": [4, 5], "includesElement__pettifor_number": [72, 49], "includesElement__specific_heat_capacity": [0.385, 0.278], "includesElement__vdw_radius": [196.0, 223.0], "includesElement__vdw_radius_alvarez": [238.0, 252.0], "includesElement__vdw_radius_mm3": [226.0, 254.0], "includesElement__vdw_radius_uff": [349.5, 312.4], "includesElement__abundance_sea": [0.00025, 3e-05], "includesElement__atomic_weight_uncertainty": [0.003, 0.002], "includesElement__c6_gb": [264.0, 1360.0], "includesElement__covalent_radius_bragg": [137.0], "includesElement__electronegativity_allen": [10.96, 7.808], "includesElement__en_allen": [10.96, 7.808], "includesElement__metallic_radius": [118.0, 145.0], "includesElement__metallic_radius_c12": [128.0, 160.0], "includesElement__thermal_conductivity": [401.0, 22.7], "includesElement__vdw_radius_batsanov": [200.0, 230.0], "includesElement__c6": [253.0], "includesElement__gas_basicity": [632.4], "includesElement__proton_affinity": [655.3], "includesElement__discovery_year": [1789], "formula": ["Cu1Zr2"], "spacegroup": ["139"], "thermalConductivity": [9.17171], "icsd": ["103164"], "band_gap": [0.0], "density": [7.041591], "density_atomic": [19.33667], "deprecated": [false], "efermi": [4.934041], "energy_above_hull": [0.0], "energy_per_atom": [-7.198991], "formation_energy_per_atom": [-0.1341221], "homogeneous_poisson": [0.31], "is_gap_direct": [false], "is_magnetic": [false], "is_metal": [true], "is_stable": [true], "nelements": [2], "nsites": [3], "num_magnetic_sites": [0], "num_unique_magnetic_sites": [0], "theoretical": [false], "total_magnetization": [6.4e-06], "total_magnetization_normalized_formula_units": [6.4e-06], "total_magnetization_normalized_vol": [1.103258e-07], "uncorrected_energy_per_atom": [-18.9158], "universal_anisotropy": [0.662], "volume": [58.01], "equilibrium_reaction_energy_per_atom": [-0.04441056]}