{"includesElement": ["", "Tl", "Ho"], "includesElement___series_id": [7, 9], "includesElement__abundance_crust": [0.85, 1.3], "includesElement__atomic_number": [81, 67], "includesElement__atomic_radius": [190.0, 175.0], "includesElement__atomic_radius_rahm": [242.0, 273.0], "includesElement__atomic_volume": [17.2, 18.7], "includesElement__atomic_weight": [204.38, 164.9303], "includesElement__covalent_radius_cordero": [145.0, 192.0], "includesElement__covalent_radius_pyykko": [144.0, 166.0], "includesElement__covalent_radius_pyykko_double": [142.0, 133.0], "includesElement__covalent_radius_pyykko_triple": [150.0], "includesElement__density": [11.8, 8.8], "includesElement__dipole_polarizability": [50.0, 156.0], "includesElement__dipole_polarizability_unc": [2.0, 10.0], "includesElement__discovery_year": [1861, 1878], "includesElement__electron_affinity": [0.377], "includesElement__electronegativity_allred-rochow": [0.0002411265, 0.0001034258], "includesElement__electronegativity_cottrell-sutton": [0.186339, 0.1310293], "includesElement__electronegativity_ghosh": [0.173447, 0.207795], "includesElement__electronegativity_gordy": [0.03472222, 0.01716867], "includesElement__electronegativity_mulliken": [3.242643, 3.01075], "includesElement__electronegativity_nagle": [0.3914868, 0.4367902], "includesElement__electronegativity_pauling": [1.8, 1.23], "includesElement__electronegativity_sanderson": [0.9245096, 0.5434919], "includesElement__en_ghosh": [0.173447, 0.207795], "includesElement__en_pauling": [1.8, 1.23], "includesElement__evaporation_heat": [162.4, 301.0], "includesElement__fusion_heat": [4.31], "includesElement__glawe_number": [81, 23], "includesElement__group_id": [13], "includesElement__heat_of_formation": [182.2, 300.6], "includesElement__is_radioactive": [false], "includesElement__lattice_constant": [3.46, 3.58], "includesElement__mendeleev_number": [85, 33], "includesElement__molar_heat_capacity": [26.32, 27.15], "includesElement__period": [6], "includesElement__pettifor_number": [78, 24], "includesElement__specific_heat_capacity": [0.129, 0.165], "includesElement__vdw_radius": [196.0, 230.0], "includesElement__vdw_radius_alvarez": [247.0, 281.0], "includesElement__vdw_radius_mm3": [259.0, 267.0], "includesElement__vdw_radius_uff": [434.7, 340.9], "includesElement__abundance_sea": [1.9e-05, 2.2e-07], "includesElement__c6_gb": [509.0, 2280.0], "includesElement__covalent_radius_bragg": [190.0], "includesElement__metallic_radius": [144.0], "includesElement__metallic_radius_c12": [160.0], "includesElement__thermal_conductivity": [46.1], "includesElement__vdw_radius_batsanov": [220.0], "includesElement__vdw_radius_bondi": [196.0], "includesElement__atomic_weight_uncertainty": [2e-05], "includesElement__is_monoisotopic": [true], "formula": ["Ho1Tl3"], "spacegroup": ["221"], "thermalConductivity": [0.456274], "icsd": ["104455"], "band_gap": [0.0], "density": [12.35625], "density_atomic": [26.14128], "deprecated": [false], "efermi": [6.26669], "energy_above_hull": [0.0], "energy_per_atom": [-48.37704], "formation_energy_per_atom": [-0.2722234], "is_gap_direct": [false], "is_magnetic": [false], "is_metal": [true], "is_stable": [true], "nelements": [2], "nsites": [4], "num_magnetic_sites": [0], "num_unique_magnetic_sites": [0], "theoretical": [false], "total_magnetization": [6e-07], "total_magnetization_normalized_formula_units": [6e-07], "total_magnetization_normalized_vol": [5.738051e-09], "uncorrected_energy_per_atom": [-48.37704], "volume": [104.5651], "equilibrium_reaction_energy_per_atom": [-0.0579419]}