{"includesElement": ["", "P", "U"], "includesElement___series_id": [1, 10], "includesElement__abundance_crust": [1050.0, 2.7], "includesElement__atomic_number": [15, 92], "includesElement__atomic_radius": [100.0, 175.0], "includesElement__atomic_radius_rahm": [223.0, 283.0], "includesElement__atomic_volume": [17.0, 12.5], "includesElement__atomic_weight": [30.97376, 238.0289], "includesElement__covalent_radius_cordero": [107.0, 196.0], "includesElement__covalent_radius_pyykko": [111.0, 170.0], "includesElement__covalent_radius_pyykko_double": [102.0, 134.0], "includesElement__covalent_radius_pyykko_triple": [94.0, 118.0], "includesElement__density": [1.823, 19.1], "includesElement__dipole_polarizability": [25.0, 129.0], "includesElement__dipole_polarizability_unc": [1.0, 17.0], "includesElement__discovery_year": [1669, 1789], "includesElement__electron_affinity": [0.746607], "includesElement__electronegativity_allred-rochow": [0.0003895788, 0.0001038062], "includesElement__electronegativity_cottrell-sutton": [0.2079501, 0.1328422], "includesElement__electronegativity_ghosh": [0.206931, 0.13207], "includesElement__electronegativity_gordy": [0.04324324, 0.01764706], "includesElement__electronegativity_mulliken": [5.616646, 3.097025], "includesElement__electronegativity_nagle": [0.5848035, 0.3596283], "includesElement__electronegativity_pauling": [2.19, 1.7], "includesElement__electronegativity_sanderson": [0.4510269, 0.618118], "includesElement__en_ghosh": [0.206931, 0.13207], "includesElement__en_pauling": [2.19, 1.7], "includesElement__evaporation_heat": [49.8, 417.0], "includesElement__fusion_heat": [2.51, 12.6], "includesElement__glawe_number": [89, 36], "includesElement__group_id": [15], "includesElement__heat_of_formation": [316.5, 533.0], "includesElement__is_radioactive": [false, true], "includesElement__lattice_constant": [7.17, 2.85], "includesElement__mendeleev_number": [94, 20], "includesElement__molar_heat_capacity": [23.824, 27.665], "includesElement__period": [3, 7], "includesElement__pettifor_number": [90, 45], "includesElement__specific_heat_capacity": [0.769, 0.116], "includesElement__vdw_radius": [180.0, 241.0], "includesElement__vdw_radius_alvarez": [190.0, 271.0], "includesElement__vdw_radius_mm3": [222.0, 252.0], "includesElement__vdw_radius_uff": [414.7, 339.5], "includesElement__abundance_sea": [0.06, 0.0032], "includesElement__atomic_weight_uncertainty": [5e-09, 3e-05], "includesElement__c6_gb": [187.0], "includesElement__electronegativity_allen": [13.33], "includesElement__en_allen": [13.33], "includesElement__metallic_radius": [110.0], "includesElement__metallic_radius_c12": [128.0], "includesElement__vdw_radius_batsanov": [195.0, 230.0], "includesElement__c6": [185.0], "includesElement__is_monoisotopic": [true], "includesElement__vdw_radius_dreiding": [415.0], "includesElement__gas_basicity": [604.8, 973.2], "includesElement__proton_affinity": [626.8, 995.2], "includesElement__vdw_radius_bondi": [180.0], "includesElement__thermal_conductivity": [27.5], "formula": ["P1U1"], "spacegroup": ["225"], "thermalConductivity": [5.61501], "icsd": ["150959"], "band_gap": [0.0], "density": [9.590411], "density_atomic": [23.28834], "deprecated": [false], "efermi": [9.778411], "energy_above_hull": [0.0], "energy_per_atom": [-45.72838], "formation_energy_per_atom": [-1.256326], "homogeneous_poisson": [0.299], "is_gap_direct": [false], "is_magnetic": [true], "is_metal": [true], "is_stable": [true], "nelements": [2], "nsites": [2], "num_magnetic_sites": [1], "num_unique_magnetic_sites": [1], "theoretical": [false], "total_magnetization": [2.553698], "total_magnetization_normalized_formula_units": [2.553698], "total_magnetization_normalized_vol": [0.05482783], "uncorrected_energy_per_atom": [-45.72838], "universal_anisotropy": [6.934], "volume": [46.57667], "equilibrium_reaction_energy_per_atom": [-0.195577]}