{"includesElement": ["", "Yb", "C"], "includesElement___series_id": [9, 1], "includesElement__abundance_crust": [3.2, 200.0], "includesElement__atomic_number": [70, 6], "includesElement__atomic_radius": [175.0, 70.0], "includesElement__atomic_radius_rahm": [277.0, 190.0], "includesElement__atomic_volume": [24.8, 5.3], "includesElement__atomic_weight": [173.045, 12.011], "includesElement__covalent_radius_cordero": [187.0, 73.0], "includesElement__covalent_radius_pyykko": [170.0, 75.0], "includesElement__covalent_radius_pyykko_double": [129.0, 67.0], "includesElement__density": [6.9, 2.2], "includesElement__dipole_polarizability": [139.0, 11.3], "includesElement__dipole_polarizability_unc": [6.0, 0.2], "includesElement__discovery_year": [1878], "includesElement__electron_affinity": [-0.02, 1.262119], "includesElement__electronegativity_allred-rochow": [9.861592e-05, 0.0005777778], "includesElement__electronegativity_cottrell-sutton": [0.1294786, 0.2081666], "includesElement__electronegativity_ghosh": [0.22119, 0.224776], "includesElement__electronegativity_gordy": [0.01676471, 0.04333333], "includesElement__electronegativity_mulliken": [3.11708, 6.261208], "includesElement__electronegativity_nagle": [0.4864465, 0.7073926], "includesElement__electronegativity_sanderson": [0.5176678, 0.427525], "includesElement__en_ghosh": [0.22119, 0.224776], "includesElement__evaporation_heat": [159.0], "includesElement__fusion_heat": [3.35], "includesElement__glawe_number": [18, 87], "includesElement__heat_of_formation": [155.6, 716.87], "includesElement__is_radioactive": [false], "includesElement__lattice_constant": [5.49, 3.57], "includesElement__mendeleev_number": [39, 87], "includesElement__molar_heat_capacity": [26.74, 8.517], "includesElement__period": [6, 2], "includesElement__pettifor_number": [17, 95], "includesElement__specific_heat_capacity": [0.155, 0.709], "includesElement__vdw_radius": [226.0, 170.0], "includesElement__vdw_radius_alvarez": [280.0, 177.0], "includesElement__vdw_radius_mm3": [279.0, 204.0], "includesElement__vdw_radius_uff": [335.5, 385.1], "includesElement__abundance_sea": [8.2e-07, 28.0], "includesElement__atomic_weight_uncertainty": [0.01], "includesElement__c6_gb": [1910.0, 47.9], "includesElement__covalent_radius_pyykko_triple": [60.0], "includesElement__electronegativity_pauling": [2.55], "includesElement__en_pauling": [2.55], "includesElement__group_id": [14], "includesElement__covalent_radius_bragg": [77.0], "includesElement__electronegativity_allen": [15.05], "includesElement__en_allen": [15.05], "includesElement__metallic_radius_c12": [86.0], "includesElement__thermal_conductivity": [1.59], "includesElement__vdw_radius_batsanov": [170.0], "includesElement__c6": [46.6], "includesElement__vdw_radius_dreiding": [389.83], "includesElement__vdw_radius_bondi": [170.0], "includesElement__vdw_radius_rt": [177.0], "formula": ["C12Yb8"], "spacegroup": ["220"], "thermalConductivity": [3.36359], "icsd": ["86293"], "band_gap": [0.0], "density": [8.72673], "density_atomic": [14.54181], "deprecated": [false], "efermi": [3.861167], "is_gap_direct": [false], "is_magnetic": [false], "is_metal": [true], "is_stable": [false], "nelements": [2], "nsites": [20], "num_magnetic_sites": [0], "num_unique_magnetic_sites": [0], "theoretical": [false], "total_magnetization": [0.0225705], "total_magnetization_normalized_formula_units": [0.005642625], "total_magnetization_normalized_vol": [7.760556e-05], "volume": [290.8361]}