{"includesElement": ["", "Y", "H"], "includesElement___series_id": [8, 1], "includesElement__abundance_crust": [33.0, 1400.0], "includesElement__atomic_number": [39, 1], "includesElement__atomic_radius": [180.0, 25.0], "includesElement__atomic_radius_rahm": [274.0, 154.0], "includesElement__atomic_volume": [19.8, 14.1], "includesElement__atomic_weight": [88.90584, 1.008], "includesElement__covalent_radius_cordero": [190.0, 31.0], "includesElement__covalent_radius_pyykko": [163.0, 32.0], "includesElement__covalent_radius_pyykko_double": [130.0], "includesElement__covalent_radius_pyykko_triple": [124.0], "includesElement__density": [4.47, 8.2e-05], "includesElement__dipole_polarizability": [162.0, 4.50711], "includesElement__dipole_polarizability_unc": [12.0, 3e-05], "includesElement__discovery_year": [1789, 1766], "includesElement__electron_affinity": [0.307, 0.754195], "includesElement__electronegativity_allred-rochow": [0.0001129135, 0.0009765625], "includesElement__electronegativity_cottrell-sutton": [0.1356647, 0.1767767], "includesElement__electronegativity_ghosh": [0.1216986, 0.2638], "includesElement__electronegativity_gordy": [0.01840491, 0.03125], "includesElement__electronegativity_mulliken": [3.26213, 7.176315], "includesElement__electronegativity_nagle": [0.2645668, 0.6053882], "includesElement__electronegativity_pauling": [1.22, 2.2], "includesElement__electronegativity_sanderson": [0.3923941, 2.187771], "includesElement__en_ghosh": [0.1216986, 0.2638], "includesElement__en_pauling": [1.22, 2.2], "includesElement__evaporation_heat": [367.0, 0.904], "includesElement__fusion_heat": [11.5, 0.117], "includesElement__glawe_number": [21, 103], "includesElement__group_id": [3, 1], "includesElement__heat_of_formation": [424.7, 217.998], "includesElement__is_radioactive": [false], "includesElement__lattice_constant": [3.65, 3.75], "includesElement__mendeleev_number": [12, 105], "includesElement__molar_heat_capacity": [26.53, 28.836], "includesElement__period": [5, 1], "includesElement__pettifor_number": [19, 103], "includesElement__specific_heat_capacity": [0.298, 14.304], "includesElement__vdw_radius": [232.0, 110.0], "includesElement__vdw_radius_alvarez": [275.0, 120.0], "includesElement__vdw_radius_mm3": [271.0, 162.0], "includesElement__vdw_radius_uff": [334.5, 288.6], "includesElement__abundance_sea": [1.3e-05, 108000.0], "includesElement__atomic_weight_uncertainty": [2e-05], "includesElement__c6_gb": [2600.0, 6.51], "includesElement__electronegativity_allen": [6.631, 13.61], "includesElement__en_allen": [6.631, 13.61], "includesElement__metallic_radius": [162.0], "includesElement__metallic_radius_c12": [180.0, 78.0], "includesElement__vdw_radius_batsanov": [240.0], "includesElement__is_monoisotopic": [true], "includesElement__gas_basicity": [945.9], "includesElement__proton_affinity": [967.0], "includesElement__thermal_conductivity": [0.1815], "includesElement__c6": [6.499027], "includesElement__vdw_radius_dreiding": [319.5], "includesElement__vdw_radius_bondi": [120.0], "includesElement__vdw_radius_rt": [110.0], "formula": ["H2Y1"], "spacegroup": ["225"], "thermalConductivity": [14.4738], "icsd": ["164604"], "band_gap": [0.0], "density": [4.301553], "density_atomic": [11.69958], "deprecated": [false], "efermi": [3.306481], "energy_above_hull": [0.0], "energy_per_atom": [-9.874239], "formation_energy_per_atom": [-0.79963], "homogeneous_poisson": [0.23], "is_gap_direct": [false], "is_magnetic": [false], "is_metal": [true], "is_stable": [true], "nelements": [2], "nsites": [3], "num_magnetic_sites": [0], "num_unique_magnetic_sites": [0], "theoretical": [false], "total_magnetization": [7e-07], "total_magnetization_normalized_formula_units": [7e-07], "total_magnetization_normalized_vol": [1.994373e-08], "uncorrected_energy_per_atom": [-9.874239], "universal_anisotropy": [0.579], "volume": [35.09874], "equilibrium_reaction_energy_per_atom": [-0.1636914]}