{"includesElement": ["", "F", "Pb"], "includesElement___series_id": [6, 7], "includesElement__abundance_crust": [585.0, 14.0], "includesElement__atomic_number": [9, 82], "includesElement__atomic_radius": [50.0, 180.0], "includesElement__atomic_radius_rahm": [163.0, 249.0], "includesElement__atomic_volume": [17.1, 18.3], "includesElement__atomic_weight": [18.9984, 207.2], "includesElement__covalent_radius_cordero": [57.0, 146.0], "includesElement__covalent_radius_pyykko": [64.0, 144.0], "includesElement__covalent_radius_pyykko_double": [59.0, 135.0], "includesElement__covalent_radius_pyykko_triple": [53.0, 137.0], "includesElement__density": [0.001553, 11.3], "includesElement__dipole_polarizability": [3.74, 47.0], "includesElement__dipole_polarizability_unc": [0.08, 3.0], "includesElement__discovery_year": [1886], "includesElement__electron_affinity": [3.40119, 0.3567432], "includesElement__electronegativity_allred-rochow": [0.001269531, 0.000272473], "includesElement__electronegativity_cottrell-sutton": [0.2850439, 0.1980811], "includesElement__electronegativity_ghosh": [0.344443, 0.177911], "includesElement__electronegativity_gordy": [0.08125, 0.03923611], "includesElement__electronegativity_mulliken": [10.412, 3.886711], "includesElement__electronegativity_nagle": [1.232373, 0.4398663], "includesElement__electronegativity_pauling": [3.98, 1.8], "includesElement__electronegativity_sanderson": [1.017681, 0.9313226], "includesElement__en_ghosh": [0.344443, 0.177911], "includesElement__en_pauling": [3.98, 1.8], "includesElement__evaporation_heat": [6.54, 177.8], "includesElement__fusion_heat": [0.51, 4.77], "includesElement__glawe_number": [102, 82], "includesElement__group_id": [17, 14], "includesElement__heat_of_formation": [79.335, 195.2], "includesElement__is_radioactive": [false], "includesElement__mendeleev_number": [106, 91], "includesElement__molar_heat_capacity": [31.304, 26.84], "includesElement__period": [2, 6], "includesElement__pettifor_number": [102, 82], "includesElement__specific_heat_capacity": [0.824, 0.13], "includesElement__vdw_radius": [147.0, 202.0], "includesElement__vdw_radius_alvarez": [146.0, 260.0], "includesElement__vdw_radius_mm3": [171.0, 274.0], "includesElement__vdw_radius_uff": [336.4, 429.7], "includesElement__abundance_sea": [1.3, 3e-05], "includesElement__atomic_weight_uncertainty": [6e-09, 0.1], "includesElement__c6_gb": [10.2, 534.0], "includesElement__covalent_radius_bragg": [67.0], "includesElement__electronegativity_allen": [24.8, 10.97], "includesElement__en_allen": [24.8, 10.97], "includesElement__thermal_conductivity": [0.028, 35.3], "includesElement__vdw_radius_batsanov": [150.0, 230.0], "includesElement__c6": [9.52], "includesElement__is_monoisotopic": [true], "includesElement__vdw_radius_dreiding": [347.2], "includesElement__gas_basicity": [315.1], "includesElement__proton_affinity": [340.1], "includesElement__vdw_radius_bondi": [147.0, 202.0], "includesElement__vdw_radius_rt": [146.0], "includesElement__lattice_constant": [4.95], "includesElement__metallic_radius": [150.0], "includesElement__metallic_radius_c12": [170.0], "formula": ["F4Pb1"], "spacegroup": ["139"], "thermalConductivity": [5.64531], "icsd": ["16795"], "band_gap": [1.9022], "density": [6.486088], "density_atomic": [14.50039], "deprecated": [false], "efermi": [-1.936743], "energy_above_hull": [0.0], "energy_per_atom": [-15.74875], "formation_energy_per_atom": [-1.992804], "homogeneous_poisson": [0.197], "is_gap_direct": [false], "is_magnetic": [false], "is_metal": [false], "is_stable": [true], "nelements": [2], "nsites": [5], "num_magnetic_sites": [0], "num_unique_magnetic_sites": [0], "theoretical": [false], "total_magnetization": [0.0], "total_magnetization_normalized_formula_units": [0.0], "total_magnetization_normalized_vol": [0.0], "uncorrected_energy_per_atom": [-15.74875], "universal_anisotropy": [9.255], "volume": [72.50196], "cbm": [-0.0708], "e_electronic": [2.889322], "e_ionic": [6.240289], "e_total": [9.129611], "equilibrium_reaction_energy_per_atom": [-0.1798371], "n": [1.699801], "vbm": [-1.973]}