{"includesElement": ["", "Pb", "Ce"], "includesElement___series_id": [7, 9], "includesElement__abundance_crust": [14.0, 66.5], "includesElement__atomic_number": [82, 58], "includesElement__atomic_radius": [180.0, 185.0], "includesElement__atomic_radius_rahm": [249.0, 282.0], "includesElement__atomic_volume": [18.3, 21.0], "includesElement__atomic_weight": [207.2, 140.116], "includesElement__covalent_radius_cordero": [146.0, 204.0], "includesElement__covalent_radius_pyykko": [144.0, 163.0], "includesElement__covalent_radius_pyykko_double": [135.0, 137.0], "includesElement__covalent_radius_pyykko_triple": [137.0, 131.0], "includesElement__density": [11.3, 6.77], "includesElement__dipole_polarizability": [47.0, 205.0], "includesElement__dipole_polarizability_unc": [3.0, 20.0], "includesElement__electron_affinity": [0.3567432, 0.65], "includesElement__electronegativity_allred-rochow": [0.000272473, 0.0001129135], "includesElement__electronegativity_cottrell-sutton": [0.1980811, 0.1356647], "includesElement__electronegativity_ghosh": [0.177911, 0.16761], "includesElement__electronegativity_gordy": [0.03923611, 0.01840491], "includesElement__electronegativity_mulliken": [3.886711, 3.0943], "includesElement__electronegativity_nagle": [0.4398663, 0.2692167], "includesElement__electronegativity_pauling": [1.8, 1.12], "includesElement__electronegativity_sanderson": [0.9313226, 0.5356179], "includesElement__en_ghosh": [0.177911, 0.16761], "includesElement__en_pauling": [1.8, 1.12], "includesElement__evaporation_heat": [177.8, 398.0], "includesElement__fusion_heat": [4.77, 5.2], "includesElement__glawe_number": [82, 31], "includesElement__group_id": [14], "includesElement__heat_of_formation": [195.2, 420.1], "includesElement__is_radioactive": [false], "includesElement__lattice_constant": [4.95, 5.16], "includesElement__mendeleev_number": [91, 15], "includesElement__molar_heat_capacity": [26.84, 26.94], "includesElement__period": [6], "includesElement__pettifor_number": [82, 32], "includesElement__specific_heat_capacity": [0.13, 0.192], "includesElement__vdw_radius": [202.0, 242.0], "includesElement__vdw_radius_alvarez": [260.0, 288.0], "includesElement__vdw_radius_mm3": [274.0], "includesElement__vdw_radius_uff": [429.7, 355.6], "includesElement__abundance_sea": [3e-05, 1.2e-06], "includesElement__atomic_weight_uncertainty": [0.1, 0.001], "includesElement__c6_gb": [534.0, 3480.0], "includesElement__electronegativity_allen": [10.97], "includesElement__en_allen": [10.97], "includesElement__metallic_radius": [150.0], "includesElement__metallic_radius_c12": [170.0], "includesElement__thermal_conductivity": [35.3, 11.3], "includesElement__vdw_radius_batsanov": [230.0], "includesElement__vdw_radius_bondi": [202.0], "includesElement__discovery_year": [1803], "formula": ["Ce1Pb3"], "spacegroup": ["221"], "thermalConductivity": [1.28281], "icsd": ["102244"], "band_gap": [0.0], "density": [10.77849], "density_atomic": [29.33757], "deprecated": [false], "efermi": [7.8831], "energy_above_hull": [0.0], "energy_per_atom": [-4.623511], "formation_energy_per_atom": [-0.3547882], "is_gap_direct": [false], "is_magnetic": [true], "is_metal": [true], "is_stable": [true], "nelements": [2], "nsites": [4], "num_magnetic_sites": [1], "num_unique_magnetic_sites": [1], "theoretical": [false], "total_magnetization": [1.207332], "total_magnetization_normalized_formula_units": [1.207332], "total_magnetization_normalized_vol": [0.01028828], "uncorrected_energy_per_atom": [-50.3914], "volume": [117.3503], "equilibrium_reaction_energy_per_atom": [-0.2229824]}