{"includesElement": ["", "Pb", "La"], "includesElement___series_id": [7, 9], "includesElement__abundance_crust": [14.0, 39.0], "includesElement__atomic_number": [82, 57], "includesElement__atomic_radius": [180.0, 195.0], "includesElement__atomic_radius_rahm": [249.0, 284.0], "includesElement__atomic_volume": [18.3, 22.5], "includesElement__atomic_weight": [207.2, 138.9055], "includesElement__covalent_radius_cordero": [146.0, 207.0], "includesElement__covalent_radius_pyykko": [144.0, 180.0], "includesElement__covalent_radius_pyykko_double": [135.0, 139.0], "includesElement__covalent_radius_pyykko_triple": [137.0, 139.0], "includesElement__density": [11.3, 6.15], "includesElement__dipole_polarizability": [47.0, 215.0], "includesElement__dipole_polarizability_unc": [3.0, 20.0], "includesElement__electron_affinity": [0.3567432, 0.47], "includesElement__electronegativity_allred-rochow": [0.000272473, 9.259259e-05], "includesElement__electronegativity_cottrell-sutton": [0.1980811, 0.1290994], "includesElement__electronegativity_ghosh": [0.177911, 0.163142], "includesElement__electronegativity_gordy": [0.03923611, 0.01666667], "includesElement__electronegativity_mulliken": [3.886711, 3.02345], "includesElement__electronegativity_nagle": [0.4398663, 0.240747], "includesElement__electronegativity_pauling": [1.8, 1.1], "includesElement__electronegativity_sanderson": [0.9313226, 0.3946505], "includesElement__en_ghosh": [0.177911, 0.163142], "includesElement__en_pauling": [1.8, 1.1], "includesElement__evaporation_heat": [177.8, 402.0], "includesElement__fusion_heat": [4.77, 8.5], "includesElement__glawe_number": [82, 32], "includesElement__group_id": [14, 3], "includesElement__heat_of_formation": [195.2, 431.0], "includesElement__is_radioactive": [false], "includesElement__lattice_constant": [4.95, 3.75], "includesElement__mendeleev_number": [91, 13], "includesElement__molar_heat_capacity": [26.84, 27.11], "includesElement__period": [6], "includesElement__pettifor_number": [82, 33], "includesElement__specific_heat_capacity": [0.13, 0.195], "includesElement__vdw_radius": [202.0, 243.0], "includesElement__vdw_radius_alvarez": [260.0, 298.0], "includesElement__vdw_radius_mm3": [274.0, 278.0], "includesElement__vdw_radius_uff": [429.7, 352.2], "includesElement__abundance_sea": [3e-05, 3.4e-06], "includesElement__atomic_weight_uncertainty": [0.1, 7e-05], "includesElement__c6_gb": [534.0, 3730.0], "includesElement__electronegativity_allen": [10.97], "includesElement__en_allen": [10.97], "includesElement__metallic_radius": [150.0, 169.0], "includesElement__metallic_radius_c12": [170.0, 187.0], "includesElement__thermal_conductivity": [35.3, 13.4], "includesElement__vdw_radius_batsanov": [230.0, 250.0], "includesElement__vdw_radius_bondi": [202.0], "includesElement__discovery_year": [1839], "includesElement__gas_basicity": [991.9], "includesElement__proton_affinity": [1013.0], "formula": ["La1Pb3"], "spacegroup": ["221"], "thermalConductivity": [1.26841], "icsd": ["104691"], "band_gap": [0.0], "density": [10.42267], "density_atomic": [30.29091], "deprecated": [false], "efermi": [8.161874], "energy_above_hull": [0.0], "energy_per_atom": [-4.465709], "formation_energy_per_atom": [-0.4472218], "homogeneous_poisson": [0.35], "is_gap_direct": [false], "is_magnetic": [false], "is_metal": [true], "is_stable": [true], "nelements": [2], "nsites": [4], "num_magnetic_sites": [0], "num_unique_magnetic_sites": [0], "theoretical": [false], "total_magnetization": [7.1e-06], "total_magnetization_normalized_formula_units": [7.1e-06], "total_magnetization_normalized_vol": [5.859843e-08], "uncorrected_energy_per_atom": [-50.19896], "universal_anisotropy": [1.887], "volume": [121.1637], "equilibrium_reaction_energy_per_atom": [-0.168191]}