{"includesElement": ["", "Si", "U"], "includesElement___series_id": [5, 10], "includesElement__abundance_crust": [282000.0, 2.7], "includesElement__atomic_number": [14, 92], "includesElement__atomic_radius": [110.0, 175.0], "includesElement__atomic_radius_rahm": [232.0, 283.0], "includesElement__atomic_volume": [12.1, 12.5], "includesElement__atomic_weight": [28.085, 238.0289], "includesElement__covalent_radius_cordero": [111.0, 196.0], "includesElement__covalent_radius_pyykko": [116.0, 170.0], "includesElement__covalent_radius_pyykko_double": [107.0, 134.0], "includesElement__covalent_radius_pyykko_triple": [102.0, 118.0], "includesElement__density": [2.3296, 19.1], "includesElement__dipole_polarizability": [37.3, 129.0], "includesElement__dipole_polarizability_unc": [0.7, 17.0], "includesElement__discovery_year": [1824, 1789], "includesElement__electron_affinity": [1.389521], "includesElement__electronegativity_allred-rochow": [0.0003084126, 0.0001038062], "includesElement__electronegativity_cottrell-sutton": [0.1891451, 0.1328422], "includesElement__electronegativity_ghosh": [0.178503, 0.13207], "includesElement__electronegativity_gordy": [0.03577586, 0.01764706], "includesElement__electronegativity_mulliken": [4.770602, 3.097025], "includesElement__electronegativity_nagle": [0.4750986, 0.3596283], "includesElement__electronegativity_pauling": [1.9, 1.7], "includesElement__electronegativity_sanderson": [0.3468158, 0.618118], "includesElement__en_ghosh": [0.178503, 0.13207], "includesElement__en_pauling": [1.9, 1.7], "includesElement__evaporation_heat": [383.0, 417.0], "includesElement__fusion_heat": [50.6, 12.6], "includesElement__glawe_number": [85, 36], "includesElement__group_id": [14], "includesElement__heat_of_formation": [450.0, 533.0], "includesElement__is_radioactive": [false, true], "includesElement__lattice_constant": [5.43, 2.85], "includesElement__mendeleev_number": [88, 20], "includesElement__molar_heat_capacity": [19.99, 27.665], "includesElement__period": [3, 7], "includesElement__pettifor_number": [85, 45], "includesElement__specific_heat_capacity": [0.712, 0.116], "includesElement__vdw_radius": [210.0, 241.0], "includesElement__vdw_radius_alvarez": [219.0, 271.0], "includesElement__vdw_radius_mm3": [229.0, 252.0], "includesElement__vdw_radius_uff": [429.5, 339.5], "includesElement__abundance_sea": [2.2, 0.0032], "includesElement__c6_gb": [308.0], "includesElement__covalent_radius_bragg": [117.0], "includesElement__electronegativity_allen": [11.33], "includesElement__en_allen": [11.33], "includesElement__metallic_radius": [117.0], "includesElement__metallic_radius_c12": [138.0], "includesElement__thermal_conductivity": [149.0, 27.5], "includesElement__vdw_radius_batsanov": [210.0, 230.0], "includesElement__c6": [305.0], "includesElement__vdw_radius_dreiding": [427.0], "includesElement__gas_basicity": [814.1, 973.2], "includesElement__proton_affinity": [837.0, 995.2], "includesElement__vdw_radius_bondi": [210.0], "includesElement__atomic_weight_uncertainty": [3e-05], "formula": ["Si1U3"], "spacegroup": ["221"], "thermalConductivity": [1.70665], "icsd": ["27036"], "band_gap": [0.0], "density": [16.16619], "density_atomic": [19.05839], "deprecated": [false], "efermi": [13.57038], "energy_above_hull": [0.03222137], "energy_per_atom": [-62.3881], "formation_energy_per_atom": [-0.2381325], "is_gap_direct": [false], "is_magnetic": [false], "is_metal": [true], "is_stable": [false], "nelements": [2], "nsites": [4], "num_magnetic_sites": [0], "num_unique_magnetic_sites": [0], "theoretical": [false], "total_magnetization": [0.0329495], "total_magnetization_normalized_formula_units": [0.0329495], "total_magnetization_normalized_vol": [0.0004322178], "uncorrected_energy_per_atom": [-62.3881], "volume": [76.23356]}