{"includesElement": ["", "Ta", "Ru"], "includesElement___series_id": [8], "includesElement__abundance_crust": [2.0, 0.001], "includesElement__atomic_number": [73, 44], "includesElement__atomic_radius": [145.0, 130.0], "includesElement__atomic_radius_rahm": [258.0, 237.0], "includesElement__atomic_volume": [10.9, 8.3], "includesElement__atomic_weight": [180.9479, 101.07], "includesElement__covalent_radius_cordero": [170.0, 146.0], "includesElement__covalent_radius_pyykko": [146.0, 125.0], "includesElement__covalent_radius_pyykko_double": [126.0, 114.0], "includesElement__covalent_radius_pyykko_triple": [119.0, 103.0], "includesElement__density": [16.4, 12.1], "includesElement__dipole_polarizability": [74.0, 72.0], "includesElement__dipole_polarizability_unc": [20.0, 10.0], "includesElement__discovery_year": [1802, 1844], "includesElement__electron_affinity": [0.322, 1.05], "includesElement__electronegativity_allred-rochow": [0.0001548133, 0.000208], "includesElement__electronegativity_cottrell-sutton": [0.1503421, 0.1612452], "includesElement__electronegativity_ghosh": [0.234581, 0.1376494], "includesElement__electronegativity_gordy": [0.02260274, 0.026], "includesElement__electronegativity_mulliken": [3.935785, 4.20525], "includesElement__electronegativity_nagle": [0.4072985, 0.4807499], "includesElement__electronegativity_pauling": [1.5, 2.2], "includesElement__electronegativity_sanderson": [0.8358832, 0.9579373], "includesElement__en_ghosh": [0.234581, 0.1376494], "includesElement__en_pauling": [1.5, 2.2], "includesElement__evaporation_heat": [758.0], "includesElement__fusion_heat": [24.7, 25.5], "includesElement__glawe_number": [52, 61], "includesElement__group_id": [5, 8], "includesElement__heat_of_formation": [782.0, 650.6], "includesElement__is_radioactive": [false], "includesElement__lattice_constant": [3.31, 2.7], "includesElement__mendeleev_number": [49, 60], "includesElement__molar_heat_capacity": [25.36, 24.06], "includesElement__period": [6, 5], "includesElement__pettifor_number": [53, 63], "includesElement__specific_heat_capacity": [0.14, 0.238], "includesElement__vdw_radius": [222.0, 213.0], "includesElement__vdw_radius_alvarez": [253.0, 246.0], "includesElement__vdw_radius_mm3": [243.0, 234.0], "includesElement__vdw_radius_uff": [317.0, 296.3], "includesElement__abundance_sea": [2e-06, 7e-07], "includesElement__atomic_weight_uncertainty": [2e-05, 0.02], "includesElement__c6_gb": [887.0, 809.0], "includesElement__electronegativity_allen": [7.93, 9.1], "includesElement__en_allen": [7.93, 9.1], "includesElement__metallic_radius": [134.0, 125.0], "includesElement__metallic_radius_c12": [146.0, 134.0], "includesElement__thermal_conductivity": [57.5, 117.0], "includesElement__vdw_radius_batsanov": [220.0, 205.0], "includesElement__gas_basicity": [751.4], "includesElement__proton_affinity": [774.0], "formula": ["Ru1Ta1"], "spacegroup": ["221"], "thermalConductivity": [7.8323], "icsd": ["650690"], "band_gap": [0.0], "density": [14.5787], "density_atomic": [16.06116], "deprecated": [false], "efermi": [7.540142], "energy_above_hull": [0.03351981], "energy_per_atom": [-37.32089], "formation_energy_per_atom": [-0.3127059], "homogeneous_poisson": [0.261], "is_gap_direct": [false], "is_magnetic": [true], "is_metal": [true], "is_stable": [false], "nelements": [2], "nsites": [2], "num_magnetic_sites": [1], "num_unique_magnetic_sites": [1], "theoretical": [false], "total_magnetization": [0.3052509], "total_magnetization_normalized_formula_units": [0.3052509], "total_magnetization_normalized_vol": [0.009502768], "uncorrected_energy_per_atom": [-10.8521], "universal_anisotropy": [-4.889], "volume": [32.12231]}