{"includesElement": ["", "Pt", "C"], "includesElement___series_id": [8, 1], "includesElement__abundance_crust": [0.005, 200.0], "includesElement__atomic_number": [78, 6], "includesElement__atomic_radius": [135.0, 70.0], "includesElement__atomic_radius_rahm": [230.0, 190.0], "includesElement__atomic_volume": [9.1, 5.3], "includesElement__atomic_weight": [195.084, 12.011], "includesElement__covalent_radius_cordero": [136.0, 73.0], "includesElement__covalent_radius_pyykko": [123.0, 75.0], "includesElement__covalent_radius_pyykko_double": [112.0, 67.0], "includesElement__covalent_radius_pyykko_triple": [110.0, 60.0], "includesElement__density": [21.5, 2.2], "includesElement__dipole_polarizability": [48.0, 11.3], "includesElement__dipole_polarizability_unc": [4.0, 0.2], "includesElement__discovery_year": [1735], "includesElement__electron_affinity": [2.128, 1.262119], "includesElement__electronegativity_allred-rochow": [0.0002346487, 0.0005777778], "includesElement__electronegativity_cottrell-sutton": [0.1698876, 0.2081666], "includesElement__electronegativity_ghosh": [0.25691, 0.224776], "includesElement__electronegativity_gordy": [0.02886179, 0.04333333], "includesElement__electronegativity_mulliken": [5.543415, 6.261208], "includesElement__electronegativity_nagle": [0.5928156, 0.7073926], "includesElement__electronegativity_pauling": [2.2, 2.55], "includesElement__electronegativity_sanderson": [1.45101, 0.427525], "includesElement__en_ghosh": [0.25691, 0.224776], "includesElement__en_pauling": [2.2, 2.55], "includesElement__evaporation_heat": [470.0], "includesElement__fusion_heat": [21.76], "includesElement__glawe_number": [64, 87], "includesElement__group_id": [10, 14], "includesElement__heat_of_formation": [565.7, 716.87], "includesElement__is_radioactive": [false], "includesElement__lattice_constant": [3.92, 3.57], "includesElement__mendeleev_number": [69, 87], "includesElement__molar_heat_capacity": [25.86, 8.517], "includesElement__period": [6, 2], "includesElement__pettifor_number": [68, 95], "includesElement__specific_heat_capacity": [0.133, 0.709], "includesElement__vdw_radius": [213.0, 170.0], "includesElement__vdw_radius_alvarez": [229.0, 177.0], "includesElement__vdw_radius_mm3": [239.0, 204.0], "includesElement__vdw_radius_uff": [275.4, 385.1], "includesElement__atomic_weight_uncertainty": [0.009], "includesElement__c6_gb": [470.0, 47.9], "includesElement__electronegativity_allen": [10.16, 15.05], "includesElement__en_allen": [10.16, 15.05], "includesElement__metallic_radius": [130.0], "includesElement__metallic_radius_c12": [139.0, 86.0], "includesElement__thermal_conductivity": [71.6, 1.59], "includesElement__vdw_radius_batsanov": [205.0, 170.0], "includesElement__abundance_sea": [28.0], "includesElement__covalent_radius_bragg": [77.0], "includesElement__c6": [46.6], "includesElement__vdw_radius_dreiding": [389.83], "includesElement__vdw_radius_bondi": [170.0], "includesElement__vdw_radius_rt": [177.0], "formula": ["C1Pt1"], "spacegroup": ["216"], "thermalConductivity": [2.40203], "icsd": ["181113"], "band_gap": [0.0], "density": [13.00237], "density_atomic": [13.22408], "deprecated": [false], "efermi": [6.214895], "energy_above_hull": [0.9112257], "energy_per_atom": [-6.738674], "formation_energy_per_atom": [0.9112257], "homogeneous_poisson": [0.449], "is_gap_direct": [false], "is_magnetic": [false], "is_metal": [true], "is_stable": [false], "nelements": [2], "nsites": [2], "num_magnetic_sites": [0], "num_unique_magnetic_sites": [0], "theoretical": [true], "total_magnetization": [0.0029284], "total_magnetization_normalized_formula_units": [0.0029284], "total_magnetization_normalized_vol": [0.0001107222], "uncorrected_energy_per_atom": [-6.738674], "universal_anisotropy": [0.264], "volume": [26.44817]}