{"includesElement": ["", "Er", "Rh"], "includesElement___series_id": [9, 8], "includesElement__abundance_crust": [3.5, 0.001], "includesElement__atomic_number": [68, 45], "includesElement__atomic_radius": [175.0, 135.0], "includesElement__atomic_radius_rahm": [272.0, 233.0], "includesElement__atomic_volume": [18.4, 8.3], "includesElement__atomic_weight": [167.259, 102.9055], "includesElement__covalent_radius_cordero": [189.0, 142.0], "includesElement__covalent_radius_pyykko": [165.0, 125.0], "includesElement__covalent_radius_pyykko_double": [133.0, 110.0], "includesElement__density": [9.07, 12.4], "includesElement__dipole_polarizability": [150.0, 66.0], "includesElement__dipole_polarizability_unc": [10.0], "includesElement__discovery_year": [1843, 1803], "includesElement__electronegativity_allred-rochow": [0.0001046832, 0.0002176], "includesElement__electronegativity_cottrell-sutton": [0.1314257, 0.1649242], "includesElement__electronegativity_ghosh": [0.212261, 0.1408379], "includesElement__electronegativity_gordy": [0.01727273, 0.0272], "includesElement__electronegativity_mulliken": [3.05385, 4.29795], "includesElement__electronegativity_nagle": [0.4536061, 0.5147142], "includesElement__electronegativity_pauling": [1.24, 2.28], "includesElement__electronegativity_sanderson": [0.5576573, 0.9761915], "includesElement__en_ghosh": [0.212261, 0.1408379], "includesElement__en_pauling": [1.24, 2.28], "includesElement__evaporation_heat": [317.0, 494.0], "includesElement__glawe_number": [22, 63], "includesElement__heat_of_formation": [316.4, 556.0], "includesElement__is_radioactive": [false], "includesElement__lattice_constant": [3.56, 3.8], "includesElement__mendeleev_number": [35, 64], "includesElement__molar_heat_capacity": [28.12, 24.98], "includesElement__period": [6, 5], "includesElement__pettifor_number": [23, 66], "includesElement__specific_heat_capacity": [0.168, 0.243], "includesElement__vdw_radius": [229.0, 210.0], "includesElement__vdw_radius_alvarez": [283.0, 244.0], "includesElement__vdw_radius_mm3": [267.0, 234.0], "includesElement__vdw_radius_uff": [339.1, 292.9], "includesElement__abundance_sea": [8.7e-07], "includesElement__atomic_weight_uncertainty": [0.003, 2e-05], "includesElement__c6_gb": [2150.0, 708.0], "includesElement__covalent_radius_pyykko_triple": [106.0], "includesElement__electron_affinity": [1.137], "includesElement__fusion_heat": [21.8], "includesElement__group_id": [9], "includesElement__electronegativity_allen": [9.259], "includesElement__en_allen": [9.259], "includesElement__metallic_radius": [125.0], "includesElement__metallic_radius_c12": [134.0], "includesElement__thermal_conductivity": [150.0], "includesElement__vdw_radius_batsanov": [200.0], "includesElement__is_monoisotopic": [true], "includesElement__gas_basicity": [745.4], "includesElement__proton_affinity": [768.0], "formula": ["Er1Rh1"], "spacegroup": ["221"], "thermalConductivity": [8.00106], "icsd": ["103293"], "band_gap": [0.0], "density": [11.74903], "density_atomic": [19.09173], "deprecated": [false], "efermi": [4.64696], "energy_above_hull": [0.0], "energy_per_atom": [-6.912766], "formation_energy_per_atom": [-0.9467522], "homogeneous_poisson": [0.33], "is_gap_direct": [false], "is_magnetic": [false], "is_metal": [true], "is_stable": [true], "nelements": [2], "nsites": [2], "num_magnetic_sites": [0], "num_unique_magnetic_sites": [0], "theoretical": [false], "total_magnetization": [3e-07], "total_magnetization_normalized_formula_units": [3e-07], "total_magnetization_normalized_vol": [7.856806e-09], "uncorrected_energy_per_atom": [-30.04262], "universal_anisotropy": [0.028], "volume": [38.18345], "equilibrium_reaction_energy_per_atom": [-0.1575023]}