{"includesElement": ["", "N", "Cr"], "includesElement___series_id": [1, 8], "includesElement__abundance_crust": [19.0, 102.0], "includesElement__atomic_number": [7, 24], "includesElement__atomic_radius": [65.0, 140.0], "includesElement__atomic_radius_rahm": [179.0, 233.0], "includesElement__atomic_volume": [17.3, 7.23], "includesElement__atomic_weight": [14.007, 51.9961], "includesElement__covalent_radius_cordero": [71.0, 139.0], "includesElement__covalent_radius_pyykko": [71.0, 122.0], "includesElement__covalent_radius_pyykko_double": [60.0, 111.0], "includesElement__covalent_radius_pyykko_triple": [54.0, 103.0], "includesElement__density": [0.001145, 7.15], "includesElement__dipole_polarizability": [7.4, 83.0], "includesElement__dipole_polarizability_unc": [0.2, 12.0], "includesElement__discovery_year": [1772, 1797], "includesElement__electron_affinity": [-1.4, 0.666], "includesElement__electronegativity_allred-rochow": [0.000773656, 0.0001981994], "includesElement__electronegativity_cottrell-sutton": [0.2343706, 0.1555003], "includesElement__electronegativity_ghosh": [0.26493, 0.1313053], "includesElement__electronegativity_gordy": [0.05492958, 0.02418033], "includesElement__electronegativity_mulliken": [6.567065, 3.716255], "includesElement__electronegativity_nagle": [0.8774979, 0.4165729], "includesElement__electronegativity_pauling": [3.04, 1.66], "includesElement__electronegativity_sanderson": [0.577482, 0.6017723], "includesElement__en_ghosh": [0.26493, 0.1313053], "includesElement__en_pauling": [3.04, 1.66], "includesElement__glawe_number": [88, 55], "includesElement__group_id": [15, 6], "includesElement__heat_of_formation": [472.44, 397.48], "includesElement__is_radioactive": [false], "includesElement__lattice_constant": [4.039, 2.88], "includesElement__mendeleev_number": [93, 51], "includesElement__molar_heat_capacity": [29.124, 23.35], "includesElement__period": [2, 4], "includesElement__pettifor_number": [100, 57], "includesElement__specific_heat_capacity": [1.04, 0.449], "includesElement__vdw_radius": [155.0, 206.0], "includesElement__vdw_radius_alvarez": [166.0, 245.0], "includesElement__vdw_radius_mm3": [193.0, 225.0], "includesElement__vdw_radius_uff": [366.0, 302.3], "includesElement__abundance_sea": [0.5, 0.0003], "includesElement__c6_gb": [25.7, 709.0], "includesElement__covalent_radius_bragg": [65.0, 140.0], "includesElement__electronegativity_allen": [18.13, 9.77], "includesElement__en_allen": [18.13, 9.77], "includesElement__metallic_radius_c12": [53.0, 128.0], "includesElement__thermal_conductivity": [0.026, 93.9], "includesElement__vdw_radius_batsanov": [160.0, 205.0], "includesElement__c6": [24.2, 602.0], "includesElement__vdw_radius_dreiding": [366.21], "includesElement__gas_basicity": [318.7, 768.4], "includesElement__proton_affinity": [342.2, 791.3], "includesElement__vdw_radius_bondi": [155.0], "includesElement__vdw_radius_rt": [164.0], "includesElement__evaporation_heat": [342.0], "includesElement__fusion_heat": [21.0], "includesElement__atomic_weight_uncertainty": [0.0006], "includesElement__metallic_radius": [119.0], "formula": ["Cr1N1"], "spacegroup": ["216"], "thermalConductivity": [45.6585], "icsd": ["181079"], "band_gap": [0.0], "density": [5.147512], "density_atomic": [10.64594], "deprecated": [false], "efermi": [5.93964], "energy_above_hull": [0.07032058], "energy_per_atom": [-12.77991], "formation_energy_per_atom": [-0.6788662], "homogeneous_poisson": [0.334], "is_gap_direct": [false], "is_magnetic": [true], "is_metal": [true], "is_stable": [false], "nelements": [2], "nsites": [2], "num_magnetic_sites": [1], "num_unique_magnetic_sites": [1], "theoretical": [true], "total_magnetization": [2.17344], "total_magnetization_normalized_formula_units": [2.17344], "total_magnetization_normalized_vol": [0.1020783], "uncorrected_energy_per_atom": [-12.77991], "universal_anisotropy": [0.413], "volume": [21.29188]}