{"includesElement": ["", "P", "La"], "includesElement___series_id": [1, 9], "includesElement__abundance_crust": [1050.0, 39.0], "includesElement__atomic_number": [15, 57], "includesElement__atomic_radius": [100.0, 195.0], "includesElement__atomic_radius_rahm": [223.0, 284.0], "includesElement__atomic_volume": [17.0, 22.5], "includesElement__atomic_weight": [30.97376, 138.9055], "includesElement__covalent_radius_cordero": [107.0, 207.0], "includesElement__covalent_radius_pyykko": [111.0, 180.0], "includesElement__covalent_radius_pyykko_double": [102.0, 139.0], "includesElement__covalent_radius_pyykko_triple": [94.0, 139.0], "includesElement__density": [1.823, 6.15], "includesElement__dipole_polarizability": [25.0, 215.0], "includesElement__dipole_polarizability_unc": [1.0, 20.0], "includesElement__discovery_year": [1669, 1839], "includesElement__electron_affinity": [0.746607, 0.47], "includesElement__electronegativity_allred-rochow": [0.0003895788, 9.259259e-05], "includesElement__electronegativity_cottrell-sutton": [0.2079501, 0.1290994], "includesElement__electronegativity_ghosh": [0.206931, 0.163142], "includesElement__electronegativity_gordy": [0.04324324, 0.01666667], "includesElement__electronegativity_mulliken": [5.616646, 3.02345], "includesElement__electronegativity_nagle": [0.5848035, 0.240747], "includesElement__electronegativity_pauling": [2.19, 1.1], "includesElement__electronegativity_sanderson": [0.4510269, 0.3946505], "includesElement__en_ghosh": [0.206931, 0.163142], "includesElement__en_pauling": [2.19, 1.1], "includesElement__evaporation_heat": [49.8, 402.0], "includesElement__fusion_heat": [2.51, 8.5], "includesElement__glawe_number": [89, 32], "includesElement__group_id": [15, 3], "includesElement__heat_of_formation": [316.5, 431.0], "includesElement__is_radioactive": [false], "includesElement__lattice_constant": [7.17, 3.75], "includesElement__mendeleev_number": [94, 13], "includesElement__molar_heat_capacity": [23.824, 27.11], "includesElement__period": [3, 6], "includesElement__pettifor_number": [90, 33], "includesElement__specific_heat_capacity": [0.769, 0.195], "includesElement__vdw_radius": [180.0, 243.0], "includesElement__vdw_radius_alvarez": [190.0, 298.0], "includesElement__vdw_radius_mm3": [222.0, 278.0], "includesElement__vdw_radius_uff": [414.7, 352.2], "includesElement__abundance_sea": [0.06, 3.4e-06], "includesElement__atomic_weight_uncertainty": [5e-09, 7e-05], "includesElement__c6_gb": [187.0, 3730.0], "includesElement__electronegativity_allen": [13.33], "includesElement__en_allen": [13.33], "includesElement__metallic_radius": [110.0, 169.0], "includesElement__metallic_radius_c12": [128.0, 187.0], "includesElement__vdw_radius_batsanov": [195.0, 250.0], "includesElement__c6": [185.0], "includesElement__is_monoisotopic": [true], "includesElement__vdw_radius_dreiding": [415.0], "includesElement__gas_basicity": [604.8, 991.9], "includesElement__proton_affinity": [626.8, 1013.0], "includesElement__vdw_radius_bondi": [180.0], "includesElement__thermal_conductivity": [13.4], "formula": ["La1P1"], "spacegroup": ["225"], "thermalConductivity": [16.8618], "icsd": ["163360"], "band_gap": [0.0], "density": [5.053993], "density_atomic": [27.90775], "deprecated": [false], "efermi": [6.429883], "energy_above_hull": [0.0], "energy_per_atom": [-21.18952], "formation_energy_per_atom": [-1.816091], "homogeneous_poisson": [0.243], "is_gap_direct": [false], "is_magnetic": [false], "is_metal": [true], "is_stable": [true], "nelements": [2], "nsites": [2], "num_magnetic_sites": [0], "num_unique_magnetic_sites": [0], "theoretical": [false], "total_magnetization": [1e-07], "total_magnetization_normalized_formula_units": [1e-07], "total_magnetization_normalized_vol": [1.791617e-09], "uncorrected_energy_per_atom": [-21.18952], "universal_anisotropy": [0.625], "volume": [55.81549], "equilibrium_reaction_energy_per_atom": [-0.8705449]}