{"includesElement": ["", "O", "Sr"], "includesElement___series_id": [1, 4], "includesElement__abundance_crust": [461000.0, 370.0], "includesElement__atomic_number": [8, 38], "includesElement__atomic_radius": [60.0, 200.0], "includesElement__atomic_radius_rahm": [171.0, 279.0], "includesElement__atomic_volume": [14.0, 33.7], "includesElement__atomic_weight": [15.999, 87.62], "includesElement__covalent_radius_cordero": [66.0, 195.0], "includesElement__covalent_radius_pyykko": [63.0, 185.0], "includesElement__covalent_radius_pyykko_double": [57.0, 157.0], "includesElement__covalent_radius_pyykko_triple": [53.0, 139.0], "includesElement__density": [0.001308, 2.64], "includesElement__dipole_polarizability": [5.3, 197.2], "includesElement__dipole_polarizability_unc": [0.2], "includesElement__discovery_year": [1774, 1790], "includesElement__electron_affinity": [1.461113, 0.048], "includesElement__electronegativity_allred-rochow": [0.001146384, 8.327246e-05], "includesElement__electronegativity_cottrell-sutton": [0.2687419, 0.1241185], "includesElement__electronegativity_ghosh": [0.304575, 0.1185082], "includesElement__electronegativity_gordy": [0.07222222, 0.01540541], "includesElement__electronegativity_mulliken": [7.539584, 2.871434], "includesElement__electronegativity_nagle": [1.042218, 0.2164584], "includesElement__electronegativity_pauling": [3.44, 0.95], "includesElement__electronegativity_sanderson": [0.9416494, 0.2631786], "includesElement__en_ghosh": [0.304575, 0.1185082], "includesElement__en_pauling": [3.44, 0.95], "includesElement__glawe_number": [97, 15], "includesElement__group_id": [16, 2], "includesElement__heat_of_formation": [249.229, 164.0], "includesElement__is_radioactive": [false], "includesElement__lattice_constant": [6.83, 6.08], "includesElement__mendeleev_number": [99, 8], "includesElement__molar_heat_capacity": [29.378, 26.79], "includesElement__period": [2, 5], "includesElement__pettifor_number": [101, 15], "includesElement__specific_heat_capacity": [0.918, 0.306], "includesElement__vdw_radius": [152.0, 249.0], "includesElement__vdw_radius_alvarez": [150.0, 284.0], "includesElement__vdw_radius_mm3": [182.0, 300.0], "includesElement__vdw_radius_uff": [350.0, 364.1], "includesElement__abundance_sea": [857000.0, 7.9], "includesElement__c6_gb": [16.7, 3230.0], "includesElement__covalent_radius_bragg": [65.0, 195.0], "includesElement__electronegativity_allen": [21.36, 5.695], "includesElement__en_allen": [21.36, 5.695], "includesElement__thermal_conductivity": [0.027], "includesElement__vdw_radius_batsanov": [155.0, 255.0], "includesElement__c6": [15.6, 3175.0], "includesElement__vdw_radius_dreiding": [340.46], "includesElement__gas_basicity": [459.6], "includesElement__proton_affinity": [485.2], "includesElement__vdw_radius_bondi": [152.0], "includesElement__vdw_radius_rt": [158.0], "includesElement__evaporation_heat": [144.0], "includesElement__fusion_heat": [9.2], "includesElement__atomic_weight_uncertainty": [0.01], "includesElement__metallic_radius": [191.0], "includesElement__metallic_radius_c12": [215.0], "includesElement__vdw_radius_truhlar": [249.0], "formula": ["O1Sr1", "OSr"], "mp_id": ["mp-2472"], "spacegroup": ["225"], "thermalConductivity": [13.3637, 10.79996, 10.89728], "icsd": ["105548"], "band_gap": [3.2748], "density": [4.987595], "density_atomic": [17.2492], "deprecated": [false], "efermi": [1.662846], "energy_above_hull": [0.0], "energy_per_atom": [-13.53129], "formation_energy_per_atom": [-2.978133], "homogeneous_poisson": [0.231], "is_gap_direct": [false], "is_magnetic": [false], "is_metal": [false], "is_stable": [true], "nelements": [2], "nsites": [2], "num_magnetic_sites": [0], "num_unique_magnetic_sites": [0], "theoretical": [false], "total_magnetization": [0.0], "total_magnetization_normalized_formula_units": [0.0], "total_magnetization_normalized_vol": [0.0], "uncorrected_energy_per_atom": [-13.53129], "universal_anisotropy": [0.006], "volume": [34.4984], "cbm": [4.7714], "e_electronic": [3.897693], "e_ionic": [14.14842], "e_total": [18.04611], "equilibrium_reaction_energy_per_atom": [-1.403738], "n": [1.974258], "vbm": [1.4966]}