{"includesElement": ["", "Be", "F"], "includesElement___series_id": [4, 6], "includesElement__abundance_crust": [2.8, 585.0], "includesElement__atomic_number": [4, 9], "includesElement__atomic_radius": [105.0, 50.0], "includesElement__atomic_radius_rahm": [219.0, 163.0], "includesElement__atomic_volume": [5.0, 17.1], "includesElement__atomic_weight": [9.012183, 18.9984], "includesElement__covalent_radius_cordero": [96.0, 57.0], "includesElement__covalent_radius_pyykko": [102.0, 64.0], "includesElement__covalent_radius_pyykko_double": [90.0, 59.0], "includesElement__covalent_radius_pyykko_triple": [85.0, 53.0], "includesElement__density": [1.85, 0.001553], "includesElement__dipole_polarizability": [37.74, 3.74], "includesElement__dipole_polarizability_unc": [0.03, 0.08], "includesElement__discovery_year": [1798, 1886], "includesElement__electron_affinity": [-2.4, 3.40119], "includesElement__electronegativity_allred-rochow": [0.0001874279, 0.001269531], "includesElement__electronegativity_cottrell-sutton": [0.1382666, 0.2850439], "includesElement__electronegativity_ghosh": [0.144986, 0.344443], "includesElement__electronegativity_gordy": [0.01911765, 0.08125], "includesElement__electronegativity_mulliken": [3.461349, 10.412], "includesElement__electronegativity_nagle": [0.3756148, 1.232373], "includesElement__electronegativity_pauling": [1.57, 3.98], "includesElement__electronegativity_sanderson": [0.1268473, 1.017681], "includesElement__en_ghosh": [0.144986, 0.344443], "includesElement__en_pauling": [1.57, 3.98], "includesElement__evaporation_heat": [309.0, 6.54], "includesElement__fusion_heat": [12.21, 0.51], "includesElement__glawe_number": [77, 102], "includesElement__group_id": [2, 17], "includesElement__heat_of_formation": [324.0, 79.335], "includesElement__is_radioactive": [false], "includesElement__lattice_constant": [2.29], "includesElement__mendeleev_number": [75, 106], "includesElement__molar_heat_capacity": [16.443, 31.304], "includesElement__period": [2], "includesElement__pettifor_number": [77, 102], "includesElement__specific_heat_capacity": [1.825, 0.824], "includesElement__vdw_radius": [153.0, 147.0], "includesElement__vdw_radius_alvarez": [198.0, 146.0], "includesElement__vdw_radius_mm3": [223.0, 171.0], "includesElement__vdw_radius_uff": [274.5, 336.4], "includesElement__abundance_sea": [5.6e-06, 1.3], "includesElement__atomic_weight_uncertainty": [5e-07, 6e-09], "includesElement__c6_gb": [214.0, 10.2], "includesElement__covalent_radius_bragg": [115.0, 67.0], "includesElement__electronegativity_allen": [9.323, 24.8], "includesElement__en_allen": [9.323, 24.8], "includesElement__metallic_radius": [89.0], "includesElement__metallic_radius_c12": [112.0], "includesElement__thermal_conductivity": [201.0, 0.028], "includesElement__vdw_radius_batsanov": [190.0, 150.0], "includesElement__c6": [227.0, 9.52], "includesElement__is_monoisotopic": [true], "includesElement__vdw_radius_truhlar": [153.0], "includesElement__vdw_radius_dreiding": [347.2], "includesElement__gas_basicity": [315.1], "includesElement__proton_affinity": [340.1], "includesElement__vdw_radius_bondi": [147.0], "includesElement__vdw_radius_rt": [146.0], "formula": ["Be6F12"], "spacegroup": ["217"], "thermalConductivity": [23.1522], "icsd": ["173557"], "band_gap": [8.0368], "density": [1.64643], "density_atomic": [15.80394], "deprecated": [false], "efermi": [-5.723544], "energy_above_hull": [0.0], "energy_per_atom": [-6.073448], "formation_energy_per_atom": [-3.552658], "homogeneous_poisson": [-0.046], "is_gap_direct": [false], "is_magnetic": [false], "is_metal": [false], "is_stable": [true], "nelements": [2], "nsites": [36], "num_magnetic_sites": [0], "num_unique_magnetic_sites": [0], "theoretical": [true], "total_magnetization": [0.0], "total_magnetization_normalized_formula_units": [0.0], "total_magnetization_normalized_vol": [0.0], "uncorrected_energy_per_atom": [-5.765448], "universal_anisotropy": [0.036], "volume": [568.9419], "cbm": [2.1906], "e_electronic": [1.517027], "e_ionic": [1.05125], "e_total": [2.568278], "equilibrium_reaction_energy_per_atom": [-3.552658], "n": [1.231677], "vbm": [-5.8462], "e_ij_max": [0.04529]}