{"includesElement": ["", "Ba", "F"], "includesElement___series_id": [4, 6], "includesElement__abundance_crust": [425.0, 585.0], "includesElement__atomic_number": [56, 9], "includesElement__atomic_radius": [215.0, 50.0], "includesElement__atomic_radius_rahm": [293.0, 163.0], "includesElement__atomic_volume": [39.0, 17.1], "includesElement__atomic_weight": [137.327, 18.9984], "includesElement__covalent_radius_cordero": [215.0, 57.0], "includesElement__covalent_radius_pyykko": [196.0, 64.0], "includesElement__covalent_radius_pyykko_double": [161.0, 59.0], "includesElement__covalent_radius_pyykko_triple": [149.0, 53.0], "includesElement__density": [3.62, 0.001553], "includesElement__dipole_polarizability": [272.0, 3.74], "includesElement__dipole_polarizability_unc": [10.0, 0.08], "includesElement__discovery_year": [1808, 1886], "includesElement__electron_affinity": [0.14462, 3.40119], "includesElement__electronegativity_allred-rochow": [7.418784e-05, 0.001269531], "includesElement__electronegativity_cottrell-sutton": [0.1205853, 0.2850439], "includesElement__electronegativity_ghosh": [0.1586786, 0.344443], "includesElement__electronegativity_gordy": [0.01454082, 0.08125], "includesElement__electronegativity_mulliken": [2.678142, 10.412], "includesElement__electronegativity_nagle": [0.1944556, 1.232373], "includesElement__electronegativity_pauling": [0.89, 3.98], "includesElement__electronegativity_sanderson": [0.3032951, 1.017681], "includesElement__en_ghosh": [0.1586786, 0.344443], "includesElement__en_pauling": [0.89, 3.98], "includesElement__evaporation_heat": [142.0, 6.54], "includesElement__fusion_heat": [7.66, 0.51], "includesElement__glawe_number": [14, 102], "includesElement__group_id": [2, 17], "includesElement__heat_of_formation": [179.1, 79.335], "includesElement__is_radioactive": [false], "includesElement__lattice_constant": [5.02], "includesElement__mendeleev_number": [9, 106], "includesElement__molar_heat_capacity": [28.07, 31.304], "includesElement__period": [6, 2], "includesElement__pettifor_number": [14, 102], "includesElement__specific_heat_capacity": [0.204, 0.824], "includesElement__vdw_radius": [268.0, 147.0], "includesElement__vdw_radius_alvarez": [303.0, 146.0], "includesElement__vdw_radius_mm3": [307.0, 171.0], "includesElement__vdw_radius_uff": [370.3, 336.4], "includesElement__abundance_sea": [0.013, 1.3], "includesElement__atomic_weight_uncertainty": [0.007, 6e-09], "includesElement__c6_gb": [5540.0, 10.2], "includesElement__covalent_radius_bragg": [210.0, 67.0], "includesElement__electronegativity_allen": [5.211, 24.8], "includesElement__en_allen": [5.211, 24.8], "includesElement__metallic_radius": [198.0], "includesElement__metallic_radius_c12": [222.0], "includesElement__vdw_radius_batsanov": [270.0, 150.0], "includesElement__vdw_radius_truhlar": [268.0], "includesElement__thermal_conductivity": [0.028], "includesElement__c6": [9.52], "includesElement__is_monoisotopic": [true], "includesElement__vdw_radius_dreiding": [347.2], "includesElement__gas_basicity": [315.1], "includesElement__proton_affinity": [340.1], "includesElement__vdw_radius_bondi": [147.0], "includesElement__vdw_radius_rt": [146.0], "formula": ["Ba1F2"], "spacegroup": ["225"], "thermalConductivity": [2.8326], "icsd": ["181246"], "band_gap": [6.6029], "density": [4.825907], "density_atomic": [20.10897], "deprecated": [false], "efermi": [-1.979317], "energy_above_hull": [0.0], "energy_per_atom": [-6.077962], "formation_energy_per_atom": [-4.163984], "homogeneous_poisson": [0.297], "is_gap_direct": [false], "is_magnetic": [false], "is_metal": [false], "is_stable": [true], "nelements": [2], "nsites": [3], "num_magnetic_sites": [0], "num_unique_magnetic_sites": [0], "theoretical": [false], "total_magnetization": [0.0], "total_magnetization_normalized_formula_units": [0.0], "total_magnetization_normalized_vol": [0.0], "uncorrected_energy_per_atom": [-15.02339], "universal_anisotropy": [0.006], "volume": [60.3269], "cbm": [4.3828], "e_electronic": [2.445058], "e_ionic": [4.67441], "e_total": [7.119468], "equilibrium_reaction_energy_per_atom": [-1.378421], "n": [1.563668], "vbm": [-2.2201]}