{"includesElement": ["", "V", "Mn"], "includesElement___series_id": [8], "includesElement__abundance_crust": [120.0, 950.0], "includesElement__atomic_number": [23, 25], "includesElement__atomic_radius": [135.0, 140.0], "includesElement__atomic_radius_rahm": [252.0, 242.0], "includesElement__atomic_volume": [8.35, 7.39], "includesElement__atomic_weight": [50.9415, 54.93804], "includesElement__covalent_radius_cordero": [153.0, 150.0], "includesElement__covalent_radius_pyykko": [134.0, 119.0], "includesElement__covalent_radius_pyykko_double": [112.0, 105.0], "includesElement__covalent_radius_pyykko_triple": [106.0, 103.0], "includesElement__density": [6.0, 7.3], "includesElement__dipole_polarizability": [87.0, 68.0], "includesElement__dipole_polarizability_unc": [10.0, 9.0], "includesElement__discovery_year": [1830, 1774], "includesElement__electron_affinity": [0.525], "includesElement__electronegativity_allred-rochow": [0.0001837826, 0.0002542193], "includesElement__electronegativity_cottrell-sutton": [0.1569295, 0.1739313], "includesElement__electronegativity_ghosh": [0.1273344, 0.1352844], "includesElement__electronegativity_gordy": [0.02462687, 0.0302521], "includesElement__electronegativity_mulliken": [3.635594, 3.717009], "includesElement__electronegativity_nagle": [0.3859078, 0.4686656], "includesElement__electronegativity_pauling": [1.63, 1.55], "includesElement__electronegativity_sanderson": [0.4388898, 0.6707264], "includesElement__en_ghosh": [0.1273344, 0.1352844], "includesElement__en_pauling": [1.63, 1.55], "includesElement__evaporation_heat": [460.0, 221.0], "includesElement__fusion_heat": [17.5, 13.4], "includesElement__glawe_number": [54, 72], "includesElement__group_id": [5, 7], "includesElement__heat_of_formation": [515.5, 283.3], "includesElement__is_radioactive": [false], "includesElement__lattice_constant": [3.02, 8.89], "includesElement__mendeleev_number": [47, 55], "includesElement__molar_heat_capacity": [24.89, 26.32], "includesElement__period": [4], "includesElement__pettifor_number": [54, 60], "includesElement__specific_heat_capacity": [0.489, 0.479], "includesElement__vdw_radius": [207.0, 205.0], "includesElement__vdw_radius_alvarez": [242.0, 245.0], "includesElement__vdw_radius_mm3": [229.0, 224.0], "includesElement__vdw_radius_uff": [314.4, 296.1], "includesElement__abundance_sea": [0.0025, 0.0002], "includesElement__atomic_weight_uncertainty": [0.0001, 3e-06], "includesElement__c6_gb": [955.0, 635.0], "includesElement__electronegativity_allen": [9.063, 10.34], "includesElement__en_allen": [9.063, 10.34], "includesElement__metallic_radius": [122.0, 118.0], "includesElement__metallic_radius_c12": [134.0, 127.0], "includesElement__thermal_conductivity": [30.7], "includesElement__vdw_radius_batsanov": [205.0], "includesElement__c6": [832.0, 552.0], "includesElement__gas_basicity": [836.8, 774.4], "includesElement__proton_affinity": [859.4, 797.3], "includesElement__covalent_radius_bragg": [147.0], "includesElement__is_monoisotopic": [true], "formula": ["Mn1V1"], "spacegroup": ["221"], "thermalConductivity": [44.5248], "icsd": ["104998"], "band_gap": [0.0], "density": [7.549046], "density_atomic": [11.64499], "deprecated": [false], "efermi": [6.809214], "energy_above_hull": [0.0], "energy_per_atom": [-14.58459], "formation_energy_per_atom": [-0.1981392], "homogeneous_poisson": [0.287], "is_gap_direct": [false], "is_magnetic": [false], "is_metal": [true], "is_stable": [true], "nelements": [2], "nsites": [2], "num_magnetic_sites": [0], "num_unique_magnetic_sites": [0], "theoretical": [false], "total_magnetization": [7e-07], "total_magnetization_normalized_formula_units": [7e-07], "total_magnetization_normalized_vol": [3.005585e-08], "uncorrected_energy_per_atom": [-14.58459], "universal_anisotropy": [0.723], "volume": [23.28998], "equilibrium_reaction_energy_per_atom": [-0.1981392]}