{"includesElement": ["", "Fe", "B"], "includesElement___series_id": [8, 5], "includesElement__abundance_crust": [56300.0, 10.0], "includesElement__atomic_number": [26, 5], "includesElement__atomic_radius": [140.0, 85.0], "includesElement__atomic_radius_rahm": [237.0, 205.0], "includesElement__atomic_volume": [7.1, 4.6], "includesElement__atomic_weight": [55.845, 10.81], "includesElement__covalent_radius_cordero": [142.0, 84.0], "includesElement__covalent_radius_pyykko": [116.0, 85.0], "includesElement__covalent_radius_pyykko_double": [109.0, 78.0], "includesElement__covalent_radius_pyykko_triple": [102.0, 73.0], "includesElement__density": [7.87, 2.34], "includesElement__dipole_polarizability": [62.0, 20.5], "includesElement__dipole_polarizability_unc": [4.0, 0.1], "includesElement__electron_affinity": [0.151, 0.279723], "includesElement__electronegativity_allred-rochow": [0.0002786861, 0.0003598616], "includesElement__electronegativity_cottrell-sutton": [0.1797987, 0.1748949], "includesElement__electronegativity_ghosh": [0.1392532, 0.184886], "includesElement__electronegativity_gordy": [0.03232759, 0.03058824], "includesElement__electronegativity_mulliken": [4.026734, 4.288871], "includesElement__electronegativity_nagle": [0.5053195, 0.5269739], "includesElement__electronegativity_pauling": [1.83, 2.04], "includesElement__electronegativity_sanderson": [0.748727, 0.2546274], "includesElement__en_ghosh": [0.1392532, 0.184886], "includesElement__en_pauling": [1.83, 2.04], "includesElement__evaporation_heat": [340.0, 504.5], "includesElement__fusion_heat": [13.8, 23.6], "includesElement__glawe_number": [71, 86], "includesElement__group_id": [8, 13], "includesElement__heat_of_formation": [415.5, 565.0], "includesElement__is_radioactive": [false], "includesElement__lattice_constant": [2.87, 8.73], "includesElement__mendeleev_number": [59, 81], "includesElement__molar_heat_capacity": [25.1, 11.087], "includesElement__period": [4, 2], "includesElement__pettifor_number": [61, 86], "includesElement__specific_heat_capacity": [0.449, 1.026], "includesElement__vdw_radius": [204.0, 192.0], "includesElement__vdw_radius_alvarez": [244.0, 191.0], "includesElement__vdw_radius_mm3": [223.0, 215.0], "includesElement__vdw_radius_uff": [291.2, 408.3], "includesElement__abundance_sea": [0.002, 4.44], "includesElement__atomic_weight_uncertainty": [0.002], "includesElement__c6_gb": [548.0, 99.2], "includesElement__covalent_radius_bragg": [140.0], "includesElement__electronegativity_allen": [10.64, 12.13], "includesElement__en_allen": [10.64, 12.13], "includesElement__metallic_radius": [117.0, 80.0], "includesElement__metallic_radius_c12": [126.0, 98.0], "includesElement__thermal_conductivity": [80.4, 27.4], "includesElement__vdw_radius_batsanov": [205.0, 180.0], "includesElement__c6": [482.0, 99.5], "includesElement__gas_basicity": [731.1], "includesElement__proton_affinity": [754.0], "includesElement__discovery_year": [1808], "includesElement__vdw_radius_dreiding": [402.0], "includesElement__vdw_radius_truhlar": [192.0], "formula": ["B2Fe4"], "spacegroup": ["123"], "thermalConductivity": [11.0313], "icsd": ["160789"], "band_gap": [0.0], "density": [6.646477], "density_atomic": [10.20178], "deprecated": [false], "efermi": [5.426024], "energy_above_hull": [0.3736042], "energy_per_atom": [-7.807034], "formation_energy_per_atom": [0.06611073], "is_gap_direct": [false], "is_magnetic": [true], "is_metal": [true], "is_stable": [false], "nelements": [2], "nsites": [3], "num_magnetic_sites": [2], "num_unique_magnetic_sites": [1], "theoretical": [true], "total_magnetization": [4.11612], "total_magnetization_normalized_formula_units": [4.11612], "total_magnetization_normalized_vol": [0.1344902], "uncorrected_energy_per_atom": [-7.807034], "volume": [30.60534]}