{"includesElement": ["", "Cd", "Ag"], "includesElement___series_id": [8], "includesElement__abundance_crust": [0.15, 0.075], "includesElement__atomic_number": [48, 47], "includesElement__atomic_radius": [155.0, 160.0], "includesElement__atomic_radius_rahm": [238.0, 225.0], "includesElement__atomic_volume": [13.1, 10.3], "includesElement__atomic_weight": [112.414, 107.8682], "includesElement__covalent_radius_cordero": [144.0, 145.0], "includesElement__covalent_radius_pyykko": [136.0, 128.0], "includesElement__covalent_radius_pyykko_double": [144.0, 139.0], "includesElement__density": [8.69, 10.5], "includesElement__dipole_polarizability": [46.0, 55.0], "includesElement__dipole_polarizability_unc": [2.0, 8.0], "includesElement__discovery_year": [1817], "includesElement__electronegativity_allred-rochow": [0.000235186, 0.0002258301], "includesElement__electronegativity_cottrell-sutton": [0.1788443, 0.1700184], "includesElement__electronegativity_ghosh": [0.1504066, 0.1472165], "includesElement__electronegativity_gordy": [0.03198529, 0.02890625], "includesElement__electronegativity_mulliken": [4.496911, 4.439117], "includesElement__electronegativity_nagle": [0.6389612, 0.5848035], "includesElement__electronegativity_pauling": [1.69, 1.93], "includesElement__electronegativity_sanderson": [0.801562, 0.9437955], "includesElement__en_ghosh": [0.1504066, 0.1472165], "includesElement__en_pauling": [1.69, 1.93], "includesElement__evaporation_heat": [59.1, 254.1], "includesElement__fusion_heat": [6.11, 11.95], "includesElement__glawe_number": [75, 67], "includesElement__group_id": [12, 11], "includesElement__heat_of_formation": [111.8, 284.9], "includesElement__is_radioactive": [false], "includesElement__lattice_constant": [2.98, 4.09], "includesElement__mendeleev_number": [78, 72], "includesElement__molar_heat_capacity": [26.02, 25.35], "includesElement__period": [5], "includesElement__pettifor_number": [75, 71], "includesElement__specific_heat_capacity": [0.232, 0.235], "includesElement__vdw_radius": [218.0, 211.0], "includesElement__vdw_radius_alvarez": [249.0, 253.0], "includesElement__vdw_radius_mm3": [250.0, 243.0], "includesElement__vdw_radius_uff": [284.8, 314.8], "includesElement__abundance_sea": [0.00011, 4e-05], "includesElement__atomic_weight_uncertainty": [0.004, 0.0002], "includesElement__c6_gb": [405.0, 341.0], "includesElement__covalent_radius_bragg": [160.0, 177.0], "includesElement__electronegativity_allen": [8.995, 11.05], "includesElement__en_allen": [8.995, 11.05], "includesElement__metallic_radius": [138.0, 134.0], "includesElement__metallic_radius_c12": [151.0, 144.0], "includesElement__thermal_conductivity": [96.9, 429.0], "includesElement__vdw_radius_batsanov": [220.0, 210.0], "includesElement__covalent_radius_pyykko_triple": [137.0], "includesElement__electron_affinity": [1.302], "formula": ["Ag1Cd1"], "spacegroup": ["221"], "thermalConductivity": [0.614437], "icsd": ["57360"], "band_gap": [0.0], "density": [9.705817], "density_atomic": [18.84345], "deprecated": [false], "efermi": [4.457206], "energy_above_hull": [0.0], "energy_per_atom": [-20.78347], "formation_energy_per_atom": [-0.05304094], "homogeneous_poisson": [0.333], "is_gap_direct": [false], "is_magnetic": [false], "is_metal": [true], "is_stable": [true], "nelements": [2], "nsites": [2], "num_magnetic_sites": [0], "num_unique_magnetic_sites": [0], "theoretical": [false], "total_magnetization": [9e-07], "total_magnetization_normalized_formula_units": [9e-07], "total_magnetization_normalized_vol": [2.388097e-08], "uncorrected_energy_per_atom": [-20.78347], "universal_anisotropy": [2.025], "volume": [37.68691], "equilibrium_reaction_energy_per_atom": [-0.001620638]}