{"includesElement": ["", "Hg", "I"], "includesElement___series_id": [8, 6], "includesElement__abundance_crust": [0.085, 0.45], "includesElement__atomic_number": [80, 53], "includesElement__atomic_radius": [150.0, 140.0], "includesElement__atomic_radius_rahm": [229.0, 238.0], "includesElement__atomic_volume": [14.8, 25.7], "includesElement__atomic_weight": [200.592, 126.9045], "includesElement__covalent_radius_cordero": [132.0, 139.0], "includesElement__covalent_radius_pyykko": [133.0], "includesElement__covalent_radius_pyykko_double": [142.0, 129.0], "includesElement__density": [13.5336, 4.933], "includesElement__dipole_polarizability": [33.91, 32.9], "includesElement__dipole_polarizability_unc": [0.34, 1.3], "includesElement__electronegativity_allred-rochow": [0.0002459155, 0.0004296455], "includesElement__electronegativity_cottrell-sutton": [0.1808501, 0.2390457], "includesElement__electronegativity_ghosh": [0.169, 0.2195176], "includesElement__electronegativity_gordy": [0.03270677, 0.05714286], "includesElement__electronegativity_mulliken": [5.218752, 6.755148], "includesElement__electronegativity_nagle": [0.7073231, 0.5969904], "includesElement__electronegativity_pauling": [1.9, 2.66], "includesElement__electronegativity_sanderson": [1.164789, 0.9386429], "includesElement__en_ghosh": [0.169, 0.2195176], "includesElement__en_pauling": [1.9, 2.66], "includesElement__evaporation_heat": [58.5, 41.95], "includesElement__fusion_heat": [2.295, 15.52], "includesElement__glawe_number": [76, 99], "includesElement__group_id": [12, 17], "includesElement__heat_of_formation": [61.38, 106.757], "includesElement__is_radioactive": [false], "includesElement__lattice_constant": [2.99, 7.72], "includesElement__mendeleev_number": [79, 109], "includesElement__molar_heat_capacity": [27.983, 54.43], "includesElement__period": [6, 5], "includesElement__pettifor_number": [74, 97], "includesElement__specific_heat_capacity": [0.14, 0.214], "includesElement__vdw_radius": [223.0, 198.0], "includesElement__vdw_radius_alvarez": [245.0, 204.0], "includesElement__vdw_radius_mm3": [253.0, 236.0], "includesElement__vdw_radius_uff": [270.5, 450.0], "includesElement__abundance_sea": [3e-05, 0.06], "includesElement__atomic_weight_uncertainty": [0.003, 3e-05], "includesElement__c6_gb": [268.0, 389.0], "includesElement__electronegativity_allen": [10.44, 13.95], "includesElement__en_allen": [10.44, 13.95], "includesElement__metallic_radius": [139.0], "includesElement__metallic_radius_c12": [151.0, 139.0], "includesElement__thermal_conductivity": [8.3], "includesElement__vdw_radius_batsanov": [205.0, 210.0], "includesElement__covalent_radius_pyykko_triple": [125.0], "includesElement__discovery_year": [1811], "includesElement__electron_affinity": [3.059037], "includesElement__covalent_radius_bragg": [140.0], "includesElement__c6": [385.0], "includesElement__is_monoisotopic": [true], "includesElement__vdw_radius_dreiding": [415.0], "includesElement__gas_basicity": [583.5], "includesElement__proton_affinity": [608.2], "includesElement__vdw_radius_bondi": [198.0], "includesElement__vdw_radius_rt": [203.0], "formula": ["Hg8I16"], "spacegroup": ["137"], "thermalConductivity": [0.276021], "icsd": ["281133"], "band_gap": [1.3751], "density": [5.876463], "density_atomic": [42.80053], "deprecated": [false], "efermi": [0.2776979], "energy_above_hull": [0.0007253904], "energy_per_atom": [-1.683124], "formation_energy_per_atom": [-0.5976562], "is_gap_direct": [true], "is_magnetic": [false], "is_metal": [false], "is_stable": [false], "nelements": [2], "nsites": [24], "num_magnetic_sites": [0], "num_unique_magnetic_sites": [0], "theoretical": [false], "total_magnetization": [0.0], "total_magnetization_normalized_formula_units": [0.0], "total_magnetization_normalized_vol": [0.0], "uncorrected_energy_per_atom": [-33.17798], "volume": [1027.213], "cbm": [1.6153], "e_electronic": [4.928562], "e_ionic": [4.089871], "e_total": [9.018433], "n": [2.220036], "vbm": [0.2402]}