{"includesElement": ["", "Bi", "Th"], "includesElement___series_id": [7, 10], "includesElement__abundance_crust": [0.0085, 9.6], "includesElement__atomic_number": [83, 90], "includesElement__atomic_radius": [160.0, 180.0], "includesElement__atomic_radius_rahm": [250.0, 288.0], "includesElement__atomic_volume": [21.3, 19.8], "includesElement__atomic_weight": [208.9804, 232.0377], "includesElement__covalent_radius_cordero": [148.0, 206.0], "includesElement__covalent_radius_pyykko": [151.0, 175.0], "includesElement__covalent_radius_pyykko_double": [141.0, 143.0], "includesElement__covalent_radius_pyykko_triple": [135.0, 136.0], "includesElement__density": [9.79, 11.7], "includesElement__dipole_polarizability": [48.0, 217.0], "includesElement__dipole_polarizability_unc": [4.0, 54.0], "includesElement__electron_affinity": [0.942362], "includesElement__electronegativity_allred-rochow": [0.0002763037, 0.0001028571], "includesElement__electronegativity_cottrell-sutton": [0.2042593, 0.1341641], "includesElement__electronegativity_ghosh": [0.182377, 0.10277], "includesElement__electronegativity_gordy": [0.04172185, 0.018], "includesElement__electronegativity_mulliken": [4.113939, 3.15335], "includesElement__electronegativity_nagle": [0.470518, 0.2641598], "includesElement__electronegativity_pauling": [1.9, 1.3], "includesElement__electronegativity_sanderson": [0.8136501, 0.5557019], "includesElement__en_ghosh": [0.182377, 0.10277], "includesElement__en_pauling": [1.9, 1.3], "includesElement__evaporation_heat": [172.0, 513.7], "includesElement__fusion_heat": [11.0, 16.11], "includesElement__glawe_number": [92, 34], "includesElement__group_id": [15], "includesElement__heat_of_formation": [209.6, 602.0], "includesElement__is_radioactive": [false, true], "includesElement__lattice_constant": [4.75, 5.08], "includesElement__mendeleev_number": [97, 16], "includesElement__molar_heat_capacity": [25.52, 27.32], "includesElement__period": [6, 7], "includesElement__pettifor_number": [87, 47], "includesElement__specific_heat_capacity": [0.122, 0.118], "includesElement__vdw_radius": [207.0, 245.0], "includesElement__vdw_radius_alvarez": [254.0, 293.0], "includesElement__vdw_radius_mm3": [266.0, 274.0], "includesElement__vdw_radius_uff": [437.0, 339.6], "includesElement__abundance_sea": [2e-05, 1e-06], "includesElement__atomic_weight_uncertainty": [1e-05, 0.0004], "includesElement__c6_gb": [513.0], "includesElement__covalent_radius_bragg": [148.0], "includesElement__electronegativity_allen": [11.9], "includesElement__en_allen": [11.9], "includesElement__metallic_radius": [151.0], "includesElement__metallic_radius_c12": [178.0], "includesElement__thermal_conductivity": [7.9], "includesElement__vdw_radius_batsanov": [230.0, 240.0], "includesElement__is_monoisotopic": [true], "includesElement__vdw_radius_truhlar": [207.0], "includesElement__discovery_year": [1828], "formula": ["Bi8Th6"], "spacegroup": ["220"], "thermalConductivity": [1.65371], "icsd": ["58862"], "band_gap": [0.0921], "density": [11.25009], "density_atomic": [32.30458], "deprecated": [false], "efermi": [6.925708], "energy_above_hull": [0.0], "energy_per_atom": [-6.022553], "formation_energy_per_atom": [-0.65062], "is_gap_direct": [false], "is_magnetic": [false], "is_metal": [false], "is_stable": [true], "nelements": [2], "nsites": [14], "num_magnetic_sites": [0], "num_unique_magnetic_sites": [0], "theoretical": [false], "total_magnetization": [0.0], "total_magnetization_normalized_formula_units": [0.0], "total_magnetization_normalized_vol": [0.0], "uncorrected_energy_per_atom": [-65.70098], "volume": [452.2641], "cbm": [6.9737], "equilibrium_reaction_energy_per_atom": [-0.1358327], "vbm": [6.8816]}