{"includesElement": ["", "Cd", "Pd"], "includesElement___series_id": [8], "includesElement__abundance_crust": [0.15, 0.015], "includesElement__atomic_number": [48, 46], "includesElement__atomic_radius": [155.0, 140.0], "includesElement__atomic_radius_rahm": [238.0, 215.0], "includesElement__atomic_volume": [13.1, 8.9], "includesElement__atomic_weight": [112.414, 106.42], "includesElement__covalent_radius_cordero": [144.0, 139.0], "includesElement__covalent_radius_pyykko": [136.0, 120.0], "includesElement__covalent_radius_pyykko_double": [144.0, 117.0], "includesElement__density": [8.69, 12.0], "includesElement__dipole_polarizability": [46.0, 26.14], "includesElement__dipole_polarizability_unc": [2.0, 0.1], "includesElement__discovery_year": [1817, 1803], "includesElement__electronegativity_allred-rochow": [0.000235186, 0.0004756944], "includesElement__electronegativity_cottrell-sutton": [0.1788443, 0.2389212], "includesElement__electronegativity_ghosh": [0.1504066, 0.1440276], "includesElement__electronegativity_gordy": [0.03198529, 0.05708333], "includesElement__electronegativity_mulliken": [4.496911, 4.44943], "includesElement__electronegativity_nagle": [0.6389612, 0.7259357], "includesElement__electronegativity_pauling": [1.69, 2.2], "includesElement__electronegativity_sanderson": [0.801562, 1.124263], "includesElement__en_ghosh": [0.1504066, 0.1440276], "includesElement__en_pauling": [1.69, 2.2], "includesElement__evaporation_heat": [59.1, 372.4], "includesElement__fusion_heat": [6.11, 17.24], "includesElement__glawe_number": [75, 65], "includesElement__group_id": [12, 10], "includesElement__heat_of_formation": [111.8, 376.6], "includesElement__is_radioactive": [false], "includesElement__lattice_constant": [2.98, 3.89], "includesElement__mendeleev_number": [78, 68], "includesElement__molar_heat_capacity": [26.02, 25.98], "includesElement__period": [5], "includesElement__pettifor_number": [75, 69], "includesElement__specific_heat_capacity": [0.232, 0.246], "includesElement__vdw_radius": [218.0, 210.0], "includesElement__vdw_radius_alvarez": [249.0, 215.0], "includesElement__vdw_radius_mm3": [250.0, 237.0], "includesElement__vdw_radius_uff": [284.8, 289.9], "includesElement__abundance_sea": [0.00011], "includesElement__atomic_weight_uncertainty": [0.004, 0.01], "includesElement__c6_gb": [405.0, 628.0], "includesElement__covalent_radius_bragg": [160.0], "includesElement__electronegativity_allen": [8.995, 9.402], "includesElement__en_allen": [8.995, 9.402], "includesElement__metallic_radius": [138.0, 128.0], "includesElement__metallic_radius_c12": [151.0, 137.0], "includesElement__thermal_conductivity": [96.9, 71.8], "includesElement__vdw_radius_batsanov": [220.0, 205.0], "includesElement__covalent_radius_pyykko_triple": [112.0], "includesElement__electron_affinity": [0.562], "includesElement__gas_basicity": [673.4], "includesElement__proton_affinity": [696.0], "formula": ["Cd1Pd1"], "spacegroup": ["123"], "thermalConductivity": [3.31255], "icsd": ["102043"], "band_gap": [0.0], "density": [10.66488], "density_atomic": [17.03617], "deprecated": [false], "efermi": [3.544957], "energy_above_hull": [0.0], "energy_per_atom": [-3.461471], "formation_energy_per_atom": [-0.3915252], "homogeneous_poisson": [0.322], "is_gap_direct": [false], "is_magnetic": [false], "is_metal": [true], "is_stable": [true], "nelements": [2], "nsites": [4], "num_magnetic_sites": [0], "num_unique_magnetic_sites": [0], "theoretical": [false], "total_magnetization": [0.0], "total_magnetization_normalized_formula_units": [0.0], "total_magnetization_normalized_vol": [0.0], "uncorrected_energy_per_atom": [-3.461471], "universal_anisotropy": [0.754], "volume": [68.14467], "equilibrium_reaction_energy_per_atom": [-0.1515115]}