{"includesElement": ["", "La", "B"], "includesElement___series_id": [9, 5], "includesElement__abundance_crust": [39.0, 10.0], "includesElement__atomic_number": [57, 5], "includesElement__atomic_radius": [195.0, 85.0], "includesElement__atomic_radius_rahm": [284.0, 205.0], "includesElement__atomic_volume": [22.5, 4.6], "includesElement__atomic_weight": [138.9055, 10.81], "includesElement__covalent_radius_cordero": [207.0, 84.0], "includesElement__covalent_radius_pyykko": [180.0, 85.0], "includesElement__covalent_radius_pyykko_double": [139.0, 78.0], "includesElement__covalent_radius_pyykko_triple": [139.0, 73.0], "includesElement__density": [6.15, 2.34], "includesElement__dipole_polarizability": [215.0, 20.5], "includesElement__dipole_polarizability_unc": [20.0, 0.1], "includesElement__discovery_year": [1839, 1808], "includesElement__electron_affinity": [0.47, 0.279723], "includesElement__electronegativity_allred-rochow": [9.259259e-05, 0.0003598616], "includesElement__electronegativity_cottrell-sutton": [0.1290994, 0.1748949], "includesElement__electronegativity_ghosh": [0.163142, 0.184886], "includesElement__electronegativity_gordy": [0.01666667, 0.03058824], "includesElement__electronegativity_mulliken": [3.02345, 4.288871], "includesElement__electronegativity_nagle": [0.240747, 0.5269739], "includesElement__electronegativity_pauling": [1.1, 2.04], "includesElement__electronegativity_sanderson": [0.3946505, 0.2546274], "includesElement__en_ghosh": [0.163142, 0.184886], "includesElement__en_pauling": [1.1, 2.04], "includesElement__evaporation_heat": [402.0, 504.5], "includesElement__fusion_heat": [8.5, 23.6], "includesElement__glawe_number": [32, 86], "includesElement__group_id": [3, 13], "includesElement__heat_of_formation": [431.0, 565.0], "includesElement__is_radioactive": [false], "includesElement__lattice_constant": [3.75, 8.73], "includesElement__mendeleev_number": [13, 81], "includesElement__molar_heat_capacity": [27.11, 11.087], "includesElement__period": [6, 2], "includesElement__pettifor_number": [33, 86], "includesElement__specific_heat_capacity": [0.195, 1.026], "includesElement__vdw_radius": [243.0, 192.0], "includesElement__vdw_radius_alvarez": [298.0, 191.0], "includesElement__vdw_radius_mm3": [278.0, 215.0], "includesElement__vdw_radius_uff": [352.2, 408.3], "includesElement__abundance_sea": [3.4e-06, 4.44], "includesElement__atomic_weight_uncertainty": [7e-05], "includesElement__c6_gb": [3730.0, 99.2], "includesElement__metallic_radius": [169.0, 80.0], "includesElement__metallic_radius_c12": [187.0, 98.0], "includesElement__thermal_conductivity": [13.4, 27.4], "includesElement__vdw_radius_batsanov": [250.0, 180.0], "includesElement__gas_basicity": [991.9], "includesElement__proton_affinity": [1013.0], "includesElement__electronegativity_allen": [12.13], "includesElement__en_allen": [12.13], "includesElement__c6": [99.5], "includesElement__vdw_radius_dreiding": [402.0], "includesElement__vdw_radius_truhlar": [192.0], "formula": ["B6La1"], "spacegroup": ["221"], "thermalConductivity": [24.037], "icsd": ["152466"], "band_gap": [0.0], "density": [4.725302], "density_atomic": [10.22975], "deprecated": [false], "efermi": [8.81891], "energy_above_hull": [0.0], "energy_per_atom": [-11.17161], "formation_energy_per_atom": [-0.6254829], "homogeneous_poisson": [0.203], "is_gap_direct": [false], "is_magnetic": [false], "is_metal": [true], "is_stable": [true], "nelements": [2], "nsites": [7], "num_magnetic_sites": [0], "num_unique_magnetic_sites": [0], "theoretical": [false], "total_magnetization": [1.5e-06], "total_magnetization_normalized_formula_units": [1.5e-06], "total_magnetization_normalized_vol": [2.094731e-08], "uncorrected_energy_per_atom": [-11.17161], "universal_anisotropy": [1.279], "volume": [71.60823], "equilibrium_reaction_energy_per_atom": [-0.1772824]}