{"includesElement": ["", "Mg", "Sr"], "includesElement___series_id": [4], "includesElement__abundance_crust": [23300.0, 370.0], "includesElement__atomic_number": [12, 38], "includesElement__atomic_radius": [150.0, 200.0], "includesElement__atomic_radius_rahm": [240.0, 279.0], "includesElement__atomic_volume": [14.0, 33.7], "includesElement__atomic_weight": [24.305, 87.62], "includesElement__covalent_radius_cordero": [141.0, 195.0], "includesElement__covalent_radius_pyykko": [139.0, 185.0], "includesElement__covalent_radius_pyykko_double": [132.0, 157.0], "includesElement__covalent_radius_pyykko_triple": [127.0, 139.0], "includesElement__density": [1.74, 2.64], "includesElement__dipole_polarizability": [71.2, 197.2], "includesElement__dipole_polarizability_unc": [0.4, 0.2], "includesElement__discovery_year": [1808, 1790], "includesElement__electronegativity_allred-rochow": [0.0001475079, 8.327246e-05], "includesElement__electronegativity_cottrell-sutton": [0.1431908, 0.1241185], "includesElement__electronegativity_ghosh": [0.121644, 0.1185082], "includesElement__electronegativity_gordy": [0.0205036, 0.01540541], "includesElement__electronegativity_mulliken": [3.823117, 2.871434], "includesElement__electronegativity_nagle": [0.3039835, 0.2164584], "includesElement__electronegativity_pauling": [1.31, 0.95], "includesElement__electronegativity_sanderson": [0.1524211, 0.2631786], "includesElement__en_ghosh": [0.121644, 0.1185082], "includesElement__en_pauling": [1.31, 0.95], "includesElement__evaporation_heat": [131.8, 144.0], "includesElement__fusion_heat": [9.2], "includesElement__glawe_number": [73, 15], "includesElement__group_id": [2], "includesElement__heat_of_formation": [147.1, 164.0], "includesElement__is_radioactive": [false], "includesElement__lattice_constant": [3.21, 6.08], "includesElement__mendeleev_number": [76, 8], "includesElement__molar_heat_capacity": [24.869, 26.79], "includesElement__period": [3, 5], "includesElement__pettifor_number": [73, 15], "includesElement__specific_heat_capacity": [1.023, 0.306], "includesElement__vdw_radius": [173.0, 249.0], "includesElement__vdw_radius_alvarez": [251.0, 284.0], "includesElement__vdw_radius_mm3": [243.0, 300.0], "includesElement__vdw_radius_uff": [302.1, 364.1], "includesElement__abundance_sea": [1290.0, 7.9], "includesElement__c6_gb": [629.0, 3230.0], "includesElement__covalent_radius_bragg": [142.0, 195.0], "includesElement__electronegativity_allen": [7.646, 5.695], "includesElement__en_allen": [7.646, 5.695], "includesElement__metallic_radius": [136.0, 191.0], "includesElement__metallic_radius_c12": [160.0, 215.0], "includesElement__thermal_conductivity": [156.0], "includesElement__vdw_radius_batsanov": [220.0, 255.0], "includesElement__c6": [626.0, 3175.0], "includesElement__gas_basicity": [797.3], "includesElement__proton_affinity": [819.6], "includesElement__vdw_radius_bondi": [173.0], "includesElement__electron_affinity": [0.048], "includesElement__atomic_weight_uncertainty": [0.01], "includesElement__vdw_radius_truhlar": [249.0], "formula": ["Mg1Sr1"], "spacegroup": ["221"], "thermalConductivity": [4.22988], "icsd": ["104873"], "band_gap": [0.0], "density": [2.526011], "density_atomic": [36.78841], "deprecated": [false], "efermi": [2.070685], "energy_above_hull": [0.01673402], "energy_per_atom": [-1.702715], "formation_energy_per_atom": [-0.04126572], "homogeneous_poisson": [0.257], "is_gap_direct": [false], "is_magnetic": [false], "is_metal": [true], "is_stable": [false], "nelements": [2], "nsites": [2], "num_magnetic_sites": [0], "num_unique_magnetic_sites": [0], "theoretical": [false], "total_magnetization": [0.0], "total_magnetization_normalized_formula_units": [0.0], "total_magnetization_normalized_vol": [0.0], "uncorrected_energy_per_atom": [-9.678345], "universal_anisotropy": [1.948], "volume": [73.57681]}