{"includesElement": ["", "Mg", "Ag"], "includesElement___series_id": [4, 8], "includesElement__abundance_crust": [23300.0, 0.075], "includesElement__atomic_number": [12, 47], "includesElement__atomic_radius": [150.0, 160.0], "includesElement__atomic_radius_rahm": [240.0, 225.0], "includesElement__atomic_volume": [14.0, 10.3], "includesElement__atomic_weight": [24.305, 107.8682], "includesElement__covalent_radius_cordero": [141.0, 145.0], "includesElement__covalent_radius_pyykko": [139.0, 128.0], "includesElement__covalent_radius_pyykko_double": [132.0, 139.0], "includesElement__covalent_radius_pyykko_triple": [127.0, 137.0], "includesElement__density": [1.74, 10.5], "includesElement__dipole_polarizability": [71.2, 55.0], "includesElement__dipole_polarizability_unc": [0.4, 8.0], "includesElement__discovery_year": [1808], "includesElement__electronegativity_allred-rochow": [0.0001475079, 0.0002258301], "includesElement__electronegativity_cottrell-sutton": [0.1431908, 0.1700184], "includesElement__electronegativity_ghosh": [0.121644, 0.1472165], "includesElement__electronegativity_gordy": [0.0205036, 0.02890625], "includesElement__electronegativity_mulliken": [3.823117, 4.439117], "includesElement__electronegativity_nagle": [0.3039835, 0.5848035], "includesElement__electronegativity_pauling": [1.31, 1.93], "includesElement__electronegativity_sanderson": [0.1524211, 0.9437955], "includesElement__en_ghosh": [0.121644, 0.1472165], "includesElement__en_pauling": [1.31, 1.93], "includesElement__evaporation_heat": [131.8, 254.1], "includesElement__fusion_heat": [9.2, 11.95], "includesElement__glawe_number": [73, 67], "includesElement__group_id": [2, 11], "includesElement__heat_of_formation": [147.1, 284.9], "includesElement__is_radioactive": [false], "includesElement__lattice_constant": [3.21, 4.09], "includesElement__mendeleev_number": [76, 72], "includesElement__molar_heat_capacity": [24.869, 25.35], "includesElement__period": [3, 5], "includesElement__pettifor_number": [73, 71], "includesElement__specific_heat_capacity": [1.023, 0.235], "includesElement__vdw_radius": [173.0, 211.0], "includesElement__vdw_radius_alvarez": [251.0, 253.0], "includesElement__vdw_radius_mm3": [243.0], "includesElement__vdw_radius_uff": [302.1, 314.8], "includesElement__abundance_sea": [1290.0, 4e-05], "includesElement__c6_gb": [629.0, 341.0], "includesElement__covalent_radius_bragg": [142.0, 177.0], "includesElement__electronegativity_allen": [7.646, 11.05], "includesElement__en_allen": [7.646, 11.05], "includesElement__metallic_radius": [136.0, 134.0], "includesElement__metallic_radius_c12": [160.0, 144.0], "includesElement__thermal_conductivity": [156.0, 429.0], "includesElement__vdw_radius_batsanov": [220.0, 210.0], "includesElement__c6": [626.0], "includesElement__gas_basicity": [797.3], "includesElement__proton_affinity": [819.6], "includesElement__vdw_radius_bondi": [173.0], "includesElement__electron_affinity": [1.302], "includesElement__atomic_weight_uncertainty": [0.0002], "formula": ["Ag1Mg1"], "spacegroup": ["221"], "thermalConductivity": [2.76908], "icsd": ["150831"], "band_gap": [0.0], "density": [6.08551], "density_atomic": [18.0329], "deprecated": [false], "efermi": [4.194989], "energy_above_hull": [0.0], "energy_per_atom": [-2.467123], "formation_energy_per_atom": [-0.2304187], "homogeneous_poisson": [0.261], "is_gap_direct": [false], "is_magnetic": [false], "is_metal": [true], "is_stable": [true], "nelements": [2], "nsites": [2], "num_magnetic_sites": [0], "num_unique_magnetic_sites": [0], "theoretical": [false], "total_magnetization": [0.0], "total_magnetization_normalized_formula_units": [0.0], "total_magnetization_normalized_vol": [0.0], "uncorrected_energy_per_atom": [-12.96587], "universal_anisotropy": [2.133], "volume": [36.0658], "equilibrium_reaction_energy_per_atom": [-0.1327504]}