{"includesElement": ["", "Be", "V"], "includesElement___series_id": [4, 8], "includesElement__abundance_crust": [2.8, 120.0], "includesElement__atomic_number": [4, 23], "includesElement__atomic_radius": [105.0, 135.0], "includesElement__atomic_radius_rahm": [219.0, 252.0], "includesElement__atomic_volume": [5.0, 8.35], "includesElement__atomic_weight": [9.012183, 50.9415], "includesElement__covalent_radius_cordero": [96.0, 153.0], "includesElement__covalent_radius_pyykko": [102.0, 134.0], "includesElement__covalent_radius_pyykko_double": [90.0, 112.0], "includesElement__covalent_radius_pyykko_triple": [85.0, 106.0], "includesElement__density": [1.85, 6.0], "includesElement__dipole_polarizability": [37.74, 87.0], "includesElement__dipole_polarizability_unc": [0.03, 10.0], "includesElement__discovery_year": [1798, 1830], "includesElement__electron_affinity": [-2.4, 0.525], "includesElement__electronegativity_allred-rochow": [0.0001874279, 0.0001837826], "includesElement__electronegativity_cottrell-sutton": [0.1382666, 0.1569295], "includesElement__electronegativity_ghosh": [0.144986, 0.1273344], "includesElement__electronegativity_gordy": [0.01911765, 0.02462687], "includesElement__electronegativity_mulliken": [3.461349, 3.635594], "includesElement__electronegativity_nagle": [0.3756148, 0.3859078], "includesElement__electronegativity_pauling": [1.57, 1.63], "includesElement__electronegativity_sanderson": [0.1268473, 0.4388898], "includesElement__en_ghosh": [0.144986, 0.1273344], "includesElement__en_pauling": [1.57, 1.63], "includesElement__evaporation_heat": [309.0, 460.0], "includesElement__fusion_heat": [12.21, 17.5], "includesElement__glawe_number": [77, 54], "includesElement__group_id": [2, 5], "includesElement__heat_of_formation": [324.0, 515.5], "includesElement__is_radioactive": [false], "includesElement__lattice_constant": [2.29, 3.02], "includesElement__mendeleev_number": [75, 47], "includesElement__molar_heat_capacity": [16.443, 24.89], "includesElement__period": [2, 4], "includesElement__pettifor_number": [77, 54], "includesElement__specific_heat_capacity": [1.825, 0.489], "includesElement__vdw_radius": [153.0, 207.0], "includesElement__vdw_radius_alvarez": [198.0, 242.0], "includesElement__vdw_radius_mm3": [223.0, 229.0], "includesElement__vdw_radius_uff": [274.5, 314.4], "includesElement__abundance_sea": [5.6e-06, 0.0025], "includesElement__atomic_weight_uncertainty": [5e-07, 0.0001], "includesElement__c6_gb": [214.0, 955.0], "includesElement__covalent_radius_bragg": [115.0], "includesElement__electronegativity_allen": [9.323, 9.063], "includesElement__en_allen": [9.323, 9.063], "includesElement__metallic_radius": [89.0, 122.0], "includesElement__metallic_radius_c12": [112.0, 134.0], "includesElement__thermal_conductivity": [201.0, 30.7], "includesElement__vdw_radius_batsanov": [190.0, 205.0], "includesElement__c6": [227.0, 832.0], "includesElement__is_monoisotopic": [true], "includesElement__vdw_radius_truhlar": [153.0], "includesElement__gas_basicity": [836.8], "includesElement__proton_affinity": [859.4], "formula": ["Be8V4"], "spacegroup": ["194"], "thermalConductivity": [5.78233], "icsd": ["58752"], "band_gap": [0.0], "density": [3.953488], "density_atomic": [9.655652], "deprecated": [false], "efermi": [4.451047], "energy_above_hull": [0.0], "energy_per_atom": [-5.739091], "formation_energy_per_atom": [-0.2181801], "homogeneous_poisson": [0.163], "is_gap_direct": [false], "is_magnetic": [false], "is_metal": [true], "is_stable": [true], "nelements": [2], "nsites": [12], "num_magnetic_sites": [0], "num_unique_magnetic_sites": [0], "theoretical": [false], "total_magnetization": [0.0089126], "total_magnetization_normalized_formula_units": [0.00222815], "total_magnetization_normalized_vol": [7.692041e-05], "uncorrected_energy_per_atom": [-7.827291], "universal_anisotropy": [0.011], "volume": [115.8678], "equilibrium_reaction_energy_per_atom": [-0.1441619]}