{"includesElement": ["", "Si", "V"], "includesElement___series_id": [5, 8], "includesElement__abundance_crust": [282000.0, 120.0], "includesElement__atomic_number": [14, 23], "includesElement__atomic_radius": [110.0, 135.0], "includesElement__atomic_radius_rahm": [232.0, 252.0], "includesElement__atomic_volume": [12.1, 8.35], "includesElement__atomic_weight": [28.085, 50.9415], "includesElement__covalent_radius_cordero": [111.0, 153.0], "includesElement__covalent_radius_pyykko": [116.0, 134.0], "includesElement__covalent_radius_pyykko_double": [107.0, 112.0], "includesElement__covalent_radius_pyykko_triple": [102.0, 106.0], "includesElement__density": [2.3296, 6.0], "includesElement__dipole_polarizability": [37.3, 87.0], "includesElement__dipole_polarizability_unc": [0.7, 10.0], "includesElement__discovery_year": [1824, 1830], "includesElement__electron_affinity": [1.389521, 0.525], "includesElement__electronegativity_allred-rochow": [0.0003084126, 0.0001837826], "includesElement__electronegativity_cottrell-sutton": [0.1891451, 0.1569295], "includesElement__electronegativity_ghosh": [0.178503, 0.1273344], "includesElement__electronegativity_gordy": [0.03577586, 0.02462687], "includesElement__electronegativity_mulliken": [4.770602, 3.635594], "includesElement__electronegativity_nagle": [0.4750986, 0.3859078], "includesElement__electronegativity_pauling": [1.9, 1.63], "includesElement__electronegativity_sanderson": [0.3468158, 0.4388898], "includesElement__en_ghosh": [0.178503, 0.1273344], "includesElement__en_pauling": [1.9, 1.63], "includesElement__evaporation_heat": [383.0, 460.0], "includesElement__fusion_heat": [50.6, 17.5], "includesElement__glawe_number": [85, 54], "includesElement__group_id": [14, 5], "includesElement__heat_of_formation": [450.0, 515.5], "includesElement__is_radioactive": [false], "includesElement__lattice_constant": [5.43, 3.02], "includesElement__mendeleev_number": [88, 47], "includesElement__molar_heat_capacity": [19.99, 24.89], "includesElement__period": [3, 4], "includesElement__pettifor_number": [85, 54], "includesElement__specific_heat_capacity": [0.712, 0.489], "includesElement__vdw_radius": [210.0, 207.0], "includesElement__vdw_radius_alvarez": [219.0, 242.0], "includesElement__vdw_radius_mm3": [229.0], "includesElement__vdw_radius_uff": [429.5, 314.4], "includesElement__abundance_sea": [2.2, 0.0025], "includesElement__c6_gb": [308.0, 955.0], "includesElement__covalent_radius_bragg": [117.0], "includesElement__electronegativity_allen": [11.33, 9.063], "includesElement__en_allen": [11.33, 9.063], "includesElement__metallic_radius": [117.0, 122.0], "includesElement__metallic_radius_c12": [138.0, 134.0], "includesElement__thermal_conductivity": [149.0, 30.7], "includesElement__vdw_radius_batsanov": [210.0, 205.0], "includesElement__c6": [305.0, 832.0], "includesElement__vdw_radius_dreiding": [427.0], "includesElement__gas_basicity": [814.1, 836.8], "includesElement__proton_affinity": [837.0, 859.4], "includesElement__vdw_radius_bondi": [210.0], "includesElement__atomic_weight_uncertainty": [0.0001], "formula": ["Si2V6"], "spacegroup": ["223"], "thermalConductivity": [8.3227], "icsd": ["186003"], "band_gap": [0.0], "density": [5.847708], "density_atomic": [12.84299], "deprecated": [false], "efermi": [7.350639], "energy_above_hull": [0.0], "energy_per_atom": [-13.25794], "formation_energy_per_atom": [-0.4973138], "homogeneous_poisson": [0.375], "is_gap_direct": [false], "is_magnetic": [true], "is_metal": [true], "is_stable": [true], "nelements": [2], "nsites": [8], "num_magnetic_sites": [6], "num_unique_magnetic_sites": [1], "theoretical": [false], "total_magnetization": [1.579735], "total_magnetization_normalized_formula_units": [0.7898677], "total_magnetization_normalized_vol": [0.01537547], "uncorrected_energy_per_atom": [-13.25794], "universal_anisotropy": [0.072], "volume": [102.7439], "equilibrium_reaction_energy_per_atom": [-0.09024274]}