{"includesElement": ["", "Mn", "B"], "includesElement___series_id": [8, 5], "includesElement__abundance_crust": [950.0, 10.0], "includesElement__atomic_number": [25, 5], "includesElement__atomic_radius": [140.0, 85.0], "includesElement__atomic_radius_rahm": [242.0, 205.0], "includesElement__atomic_volume": [7.39, 4.6], "includesElement__atomic_weight": [54.93804, 10.81], "includesElement__covalent_radius_cordero": [150.0, 84.0], "includesElement__covalent_radius_pyykko": [119.0, 85.0], "includesElement__covalent_radius_pyykko_double": [105.0, 78.0], "includesElement__covalent_radius_pyykko_triple": [103.0, 73.0], "includesElement__density": [7.3, 2.34], "includesElement__dipole_polarizability": [68.0, 20.5], "includesElement__dipole_polarizability_unc": [9.0, 0.1], "includesElement__discovery_year": [1774, 1808], "includesElement__electronegativity_allred-rochow": [0.0002542193, 0.0003598616], "includesElement__electronegativity_cottrell-sutton": [0.1739313, 0.1748949], "includesElement__electronegativity_ghosh": [0.1352844, 0.184886], "includesElement__electronegativity_gordy": [0.0302521, 0.03058824], "includesElement__electronegativity_mulliken": [3.717009, 4.288871], "includesElement__electronegativity_nagle": [0.4686656, 0.5269739], "includesElement__electronegativity_pauling": [1.55, 2.04], "includesElement__electronegativity_sanderson": [0.6707264, 0.2546274], "includesElement__en_ghosh": [0.1352844, 0.184886], "includesElement__en_pauling": [1.55, 2.04], "includesElement__evaporation_heat": [221.0, 504.5], "includesElement__fusion_heat": [13.4, 23.6], "includesElement__glawe_number": [72, 86], "includesElement__group_id": [7, 13], "includesElement__heat_of_formation": [283.3, 565.0], "includesElement__is_radioactive": [false], "includesElement__lattice_constant": [8.89, 8.73], "includesElement__mendeleev_number": [55, 81], "includesElement__molar_heat_capacity": [26.32, 11.087], "includesElement__period": [4, 2], "includesElement__pettifor_number": [60, 86], "includesElement__specific_heat_capacity": [0.479, 1.026], "includesElement__vdw_radius": [205.0, 192.0], "includesElement__vdw_radius_alvarez": [245.0, 191.0], "includesElement__vdw_radius_mm3": [224.0, 215.0], "includesElement__vdw_radius_uff": [296.1, 408.3], "includesElement__abundance_sea": [0.0002, 4.44], "includesElement__atomic_weight_uncertainty": [3e-06], "includesElement__c6_gb": [635.0, 99.2], "includesElement__covalent_radius_bragg": [147.0], "includesElement__electronegativity_allen": [10.34, 12.13], "includesElement__en_allen": [10.34, 12.13], "includesElement__metallic_radius": [118.0, 80.0], "includesElement__metallic_radius_c12": [127.0, 98.0], "includesElement__vdw_radius_batsanov": [205.0, 180.0], "includesElement__c6": [552.0, 99.5], "includesElement__is_monoisotopic": [true], "includesElement__gas_basicity": [774.4], "includesElement__proton_affinity": [797.3], "includesElement__electron_affinity": [0.279723], "includesElement__thermal_conductivity": [27.4], "includesElement__vdw_radius_dreiding": [402.0], "includesElement__vdw_radius_truhlar": [192.0], "formula": ["B2Mn1"], "spacegroup": ["191"], "thermalConductivity": [113.623], "icsd": ["187733"], "band_gap": [0.0], "density": [5.301405], "density_atomic": [7.993538], "deprecated": [false], "efermi": [8.310253], "energy_above_hull": [0.06919971], "energy_per_atom": [-10.09916], "formation_energy_per_atom": [-0.307147], "homogeneous_poisson": [0.224], "is_gap_direct": [false], "is_magnetic": [true], "is_metal": [true], "is_stable": [false], "nelements": [2], "nsites": [3], "num_magnetic_sites": [1], "num_unique_magnetic_sites": [1], "theoretical": [false], "total_magnetization": [2.933335], "total_magnetization_normalized_formula_units": [2.933335], "total_magnetization_normalized_vol": [0.1223211], "uncorrected_energy_per_atom": [-10.09916], "universal_anisotropy": [0.433], "volume": [23.98061]}