{"includesElement": ["", "Al", "Ho"], "includesElement___series_id": [7, 9], "includesElement__abundance_crust": [82300.0, 1.3], "includesElement__atomic_number": [13, 67], "includesElement__atomic_radius": [125.0, 175.0], "includesElement__atomic_radius_rahm": [239.0, 273.0], "includesElement__atomic_volume": [10.0, 18.7], "includesElement__atomic_weight": [26.98154, 164.9303], "includesElement__covalent_radius_cordero": [121.0, 192.0], "includesElement__covalent_radius_pyykko": [126.0, 166.0], "includesElement__covalent_radius_pyykko_double": [113.0, 133.0], "includesElement__covalent_radius_pyykko_triple": [111.0], "includesElement__density": [2.7, 8.8], "includesElement__dipole_polarizability": [57.8, 156.0], "includesElement__dipole_polarizability_unc": [1.0, 10.0], "includesElement__discovery_year": [1825, 1878], "includesElement__electron_affinity": [0.43283], "includesElement__electronegativity_allred-rochow": [0.0002204586, 0.0001034258], "includesElement__electronegativity_cottrell-sutton": [0.1666667, 0.1310293], "includesElement__electronegativity_ghosh": [0.150078, 0.207795], "includesElement__electronegativity_gordy": [0.02777778, 0.01716867], "includesElement__electronegativity_mulliken": [3.209299, 3.01075], "includesElement__electronegativity_nagle": [0.3730192, 0.4367902], "includesElement__electronegativity_pauling": [1.61, 1.23], "includesElement__electronegativity_sanderson": [0.2360927, 0.5434919], "includesElement__en_ghosh": [0.150078, 0.207795], "includesElement__en_pauling": [1.61, 1.23], "includesElement__evaporation_heat": [284.1, 301.0], "includesElement__fusion_heat": [10.75], "includesElement__glawe_number": [78, 23], "includesElement__group_id": [13], "includesElement__heat_of_formation": [330.9, 300.6], "includesElement__is_radioactive": [false], "includesElement__lattice_constant": [4.05, 3.58], "includesElement__mendeleev_number": [82, 33], "includesElement__molar_heat_capacity": [24.2, 27.15], "includesElement__period": [3, 6], "includesElement__pettifor_number": [80, 24], "includesElement__specific_heat_capacity": [0.897, 0.165], "includesElement__vdw_radius": [184.0, 230.0], "includesElement__vdw_radius_alvarez": [225.0, 281.0], "includesElement__vdw_radius_mm3": [236.0, 267.0], "includesElement__vdw_radius_uff": [449.9, 340.9], "includesElement__abundance_sea": [0.002, 2.2e-07], "includesElement__atomic_weight_uncertainty": [7e-07, 2e-05], "includesElement__c6_gb": [520.0, 2280.0], "includesElement__covalent_radius_bragg": [135.0], "includesElement__electronegativity_allen": [9.539], "includesElement__en_allen": [9.539], "includesElement__metallic_radius": [125.0], "includesElement__metallic_radius_c12": [143.0], "includesElement__thermal_conductivity": [237.0], "includesElement__vdw_radius_batsanov": [210.0], "includesElement__c6": [528.0], "includesElement__is_monoisotopic": [true], "includesElement__vdw_radius_dreiding": [439.0], "includesElement__vdw_radius_truhlar": [184.0], "formula": ["Al4Ho8"], "spacegroup": ["62"], "thermalConductivity": [2.96462], "icsd": ["57910"], "band_gap": [0.0], "density": [7.672858], "density_atomic": [25.74227], "deprecated": [false], "efermi": [3.997388], "energy_above_hull": [0.0], "energy_per_atom": [-24.50958], "formation_energy_per_atom": [-0.3446537], "is_gap_direct": [false], "is_magnetic": [false], "is_metal": [true], "is_stable": [true], "nelements": [2], "nsites": [12], "num_magnetic_sites": [0], "num_unique_magnetic_sites": [0], "theoretical": [false], "total_magnetization": [4e-07], "total_magnetization_normalized_formula_units": [1e-07], "total_magnetization_normalized_vol": [1.294887e-09], "uncorrected_energy_per_atom": [-24.50958], "volume": [308.9073], "equilibrium_reaction_energy_per_atom": [-0.02600413]}