{"includesElement": ["", "Li", "Tl"], "includesElement___series_id": [3, 7], "includesElement__abundance_crust": [20.0, 0.85], "includesElement__atomic_number": [3, 81], "includesElement__atomic_radius": [145.0, 190.0], "includesElement__atomic_radius_rahm": [220.0, 242.0], "includesElement__atomic_volume": [13.1, 17.2], "includesElement__atomic_weight": [6.94, 204.38], "includesElement__covalent_radius_cordero": [128.0, 145.0], "includesElement__covalent_radius_pyykko": [133.0, 144.0], "includesElement__covalent_radius_pyykko_double": [124.0, 142.0], "includesElement__density": [0.534, 11.8], "includesElement__dipole_polarizability": [164.1125, 50.0], "includesElement__dipole_polarizability_unc": [0.0005, 2.0], "includesElement__discovery_year": [1817, 1861], "includesElement__electron_affinity": [0.618049, 0.377], "includesElement__electronegativity_allred-rochow": [7.3492e-05, 0.0002411265], "includesElement__electronegativity_cottrell-sutton": [0.09886575, 0.186339], "includesElement__electronegativity_ghosh": [0.105093, 0.173447], "includesElement__electronegativity_gordy": [0.009774436, 0.03472222], "includesElement__electronegativity_mulliken": [3.004882, 3.242643], "includesElement__electronegativity_nagle": [0.1826499, 0.3914868], "includesElement__electronegativity_pauling": [0.98, 1.8], "includesElement__electronegativity_sanderson": [0.04886793, 0.9245096], "includesElement__en_ghosh": [0.105093, 0.173447], "includesElement__en_pauling": [0.98, 1.8], "includesElement__evaporation_heat": [148.0, 162.4], "includesElement__fusion_heat": [2.89, 4.31], "includesElement__glawe_number": [12, 81], "includesElement__group_id": [1, 13], "includesElement__heat_of_formation": [159.3, 182.2], "includesElement__is_radioactive": [false], "includesElement__lattice_constant": [3.49, 3.46], "includesElement__mendeleev_number": [1, 85], "includesElement__molar_heat_capacity": [24.86, 26.32], "includesElement__period": [2, 6], "includesElement__pettifor_number": [12, 78], "includesElement__specific_heat_capacity": [3.582, 0.129], "includesElement__vdw_radius": [182.0, 196.0], "includesElement__vdw_radius_alvarez": [212.0, 247.0], "includesElement__vdw_radius_mm3": [255.0, 259.0], "includesElement__vdw_radius_uff": [245.1, 434.7], "includesElement__abundance_sea": [0.18, 1.9e-05], "includesElement__c6_gb": [1410.0, 509.0], "includesElement__covalent_radius_bragg": [150.0, 190.0], "includesElement__electronegativity_allen": [5.392], "includesElement__en_allen": [5.392], "includesElement__metallic_radius": [123.0, 144.0], "includesElement__metallic_radius_c12": [155.0, 160.0], "includesElement__thermal_conductivity": [84.8, 46.1], "includesElement__vdw_radius_batsanov": [220.0], "includesElement__c6": [1392.0], "includesElement__vdw_radius_bondi": [181.0, 196.0], "includesElement__covalent_radius_pyykko_triple": [150.0], "formula": ["Li1Tl1"], "spacegroup": ["221"], "thermalConductivity": [1.49571], "icsd": ["104789"], "band_gap": [0.0], "density": [8.621959], "density_atomic": [20.34991], "deprecated": [false], "efermi": [5.524858], "energy_above_hull": [0.0], "energy_per_atom": [-28.03861], "formation_energy_per_atom": [-0.2555998], "homogeneous_poisson": [0.548], "is_gap_direct": [false], "is_magnetic": [false], "is_metal": [true], "is_stable": [true], "nelements": [2], "nsites": [2], "num_magnetic_sites": [0], "num_unique_magnetic_sites": [0], "theoretical": [false], "total_magnetization": [1e-07], "total_magnetization_normalized_formula_units": [1e-07], "total_magnetization_normalized_vol": [2.457013e-09], "uncorrected_energy_per_atom": [-28.03861], "universal_anisotropy": [-8.44], "volume": [40.69983], "equilibrium_reaction_energy_per_atom": [-0.03905722]}