{"includesElement": ["", "As", "Y"], "includesElement___series_id": [5, 8], "includesElement__abundance_crust": [1.8, 33.0], "includesElement__atomic_number": [33, 39], "includesElement__atomic_radius": [115.0, 180.0], "includesElement__atomic_radius_rahm": [231.0, 274.0], "includesElement__atomic_volume": [13.1, 19.8], "includesElement__atomic_weight": [74.92159, 88.90584], "includesElement__covalent_radius_cordero": [119.0, 190.0], "includesElement__covalent_radius_pyykko": [121.0, 163.0], "includesElement__covalent_radius_pyykko_double": [114.0, 130.0], "includesElement__covalent_radius_pyykko_triple": [106.0, 124.0], "includesElement__density": [5.75, 4.47], "includesElement__dipole_polarizability": [30.0, 162.0], "includesElement__dipole_polarizability_unc": [1.0, 12.0], "includesElement__electron_affinity": [0.804, 0.307], "includesElement__electronegativity_allred-rochow": [0.0004302985, 0.0001129135], "includesElement__electronegativity_cottrell-sutton": [0.22818, 0.1356647], "includesElement__electronegativity_ghosh": [0.2068208, 0.1216986], "includesElement__electronegativity_gordy": [0.05206612, 0.01840491], "includesElement__electronegativity_mulliken": [5.2965, 3.26213], "includesElement__electronegativity_nagle": [0.5503212, 0.2645668], "includesElement__electronegativity_pauling": [2.18, 1.22], "includesElement__electronegativity_sanderson": [0.8253373, 0.3923941], "includesElement__en_ghosh": [0.2068208, 0.1216986], "includesElement__en_pauling": [2.18, 1.22], "includesElement__evaporation_heat": [32.4, 367.0], "includesElement__glawe_number": [90, 21], "includesElement__group_id": [15, 3], "includesElement__heat_of_formation": [302.5, 424.7], "includesElement__is_radioactive": [false], "includesElement__lattice_constant": [4.13, 3.65], "includesElement__mendeleev_number": [95, 12], "includesElement__molar_heat_capacity": [24.64, 26.53], "includesElement__period": [4, 5], "includesElement__pettifor_number": [89, 19], "includesElement__specific_heat_capacity": [0.329, 0.298], "includesElement__vdw_radius": [185.0, 232.0], "includesElement__vdw_radius_alvarez": [188.0, 275.0], "includesElement__vdw_radius_mm3": [236.0, 271.0], "includesElement__vdw_radius_uff": [423.0, 334.5], "includesElement__abundance_sea": [0.0037, 1.3e-05], "includesElement__atomic_weight_uncertainty": [6e-06, 2e-05], "includesElement__c6_gb": [260.0, 2600.0], "includesElement__covalent_radius_bragg": [126.0], "includesElement__electronegativity_allen": [13.08, 6.631], "includesElement__en_allen": [13.08, 6.631], "includesElement__metallic_radius": [121.0, 162.0], "includesElement__metallic_radius_c12": [148.0, 180.0], "includesElement__vdw_radius_batsanov": [205.0, 240.0], "includesElement__c6": [246.0], "includesElement__is_monoisotopic": [true], "includesElement__vdw_radius_dreiding": [415.0], "includesElement__vdw_radius_bondi": [185.0], "includesElement__discovery_year": [1789], "includesElement__fusion_heat": [11.5], "includesElement__gas_basicity": [945.9], "includesElement__proton_affinity": [967.0], "formula": ["As1Y1"], "spacegroup": ["225"], "thermalConductivity": [16.4124], "icsd": ["160146"], "band_gap": [0.0], "density": [5.503159], "density_atomic": [24.71688], "deprecated": [false], "efermi": [4.244846], "energy_above_hull": [0.0], "energy_per_atom": [-19.32868], "formation_energy_per_atom": [-1.818118], "homogeneous_poisson": [0.224], "is_gap_direct": [false], "is_magnetic": [false], "is_metal": [true], "is_stable": [true], "nelements": [2], "nsites": [2], "num_magnetic_sites": [0], "num_unique_magnetic_sites": [0], "theoretical": [false], "total_magnetization": [1e-06], "total_magnetization_normalized_formula_units": [1e-06], "total_magnetization_normalized_vol": [2.022909e-08], "uncorrected_energy_per_atom": [-19.32868], "universal_anisotropy": [0.573], "volume": [49.43377], "equilibrium_reaction_energy_per_atom": [-1.818118]}