{"includesElement": ["", "Hg", "Ho"], "includesElement___series_id": [8, 9], "includesElement__abundance_crust": [0.085, 1.3], "includesElement__atomic_number": [80, 67], "includesElement__atomic_radius": [150.0, 175.0], "includesElement__atomic_radius_rahm": [229.0, 273.0], "includesElement__atomic_volume": [14.8, 18.7], "includesElement__atomic_weight": [200.592, 164.9303], "includesElement__covalent_radius_cordero": [132.0, 192.0], "includesElement__covalent_radius_pyykko": [133.0, 166.0], "includesElement__covalent_radius_pyykko_double": [142.0, 133.0], "includesElement__density": [13.5336, 8.8], "includesElement__dipole_polarizability": [33.91, 156.0], "includesElement__dipole_polarizability_unc": [0.34, 10.0], "includesElement__electronegativity_allred-rochow": [0.0002459155, 0.0001034258], "includesElement__electronegativity_cottrell-sutton": [0.1808501, 0.1310293], "includesElement__electronegativity_ghosh": [0.169, 0.207795], "includesElement__electronegativity_gordy": [0.03270677, 0.01716867], "includesElement__electronegativity_mulliken": [5.218752, 3.01075], "includesElement__electronegativity_nagle": [0.7073231, 0.4367902], "includesElement__electronegativity_pauling": [1.9, 1.23], "includesElement__electronegativity_sanderson": [1.164789, 0.5434919], "includesElement__en_ghosh": [0.169, 0.207795], "includesElement__en_pauling": [1.9, 1.23], "includesElement__evaporation_heat": [58.5, 301.0], "includesElement__fusion_heat": [2.295], "includesElement__glawe_number": [76, 23], "includesElement__group_id": [12], "includesElement__heat_of_formation": [61.38, 300.6], "includesElement__is_radioactive": [false], "includesElement__lattice_constant": [2.99, 3.58], "includesElement__mendeleev_number": [79, 33], "includesElement__molar_heat_capacity": [27.983, 27.15], "includesElement__period": [6], "includesElement__pettifor_number": [74, 24], "includesElement__specific_heat_capacity": [0.14, 0.165], "includesElement__vdw_radius": [223.0, 230.0], "includesElement__vdw_radius_alvarez": [245.0, 281.0], "includesElement__vdw_radius_mm3": [253.0, 267.0], "includesElement__vdw_radius_uff": [270.5, 340.9], "includesElement__abundance_sea": [3e-05, 2.2e-07], "includesElement__atomic_weight_uncertainty": [0.003, 2e-05], "includesElement__c6_gb": [268.0, 2280.0], "includesElement__electronegativity_allen": [10.44], "includesElement__en_allen": [10.44], "includesElement__metallic_radius": [139.0], "includesElement__metallic_radius_c12": [151.0], "includesElement__thermal_conductivity": [8.3], "includesElement__vdw_radius_batsanov": [205.0], "includesElement__discovery_year": [1878], "includesElement__is_monoisotopic": [true], "formula": ["Hg2Ho1"], "spacegroup": ["191"], "thermalConductivity": [1.92911], "icsd": ["104298"], "band_gap": [0.0], "density": [13.29017], "density_atomic": [23.57753], "deprecated": [false], "efermi": [3.523064], "energy_above_hull": [0.001174575], "energy_per_atom": [-44.32306], "formation_energy_per_atom": [-0.450744], "homogeneous_poisson": [0.314], "is_gap_direct": [false], "is_magnetic": [false], "is_metal": [true], "is_stable": [false], "nelements": [2], "nsites": [3], "num_magnetic_sites": [0], "num_unique_magnetic_sites": [0], "theoretical": [false], "total_magnetization": [0.0191154], "total_magnetization_normalized_formula_units": [0.0191154], "total_magnetization_normalized_vol": [0.0002702488], "uncorrected_energy_per_atom": [-44.32306], "universal_anisotropy": [0.218], "volume": [70.7326]}