{"includesElement": ["", "Rh", "Th"], "includesElement___series_id": [8, 10], "includesElement__abundance_crust": [0.001, 9.6], "includesElement__atomic_number": [45, 90], "includesElement__atomic_radius": [135.0, 180.0], "includesElement__atomic_radius_rahm": [233.0, 288.0], "includesElement__atomic_volume": [8.3, 19.8], "includesElement__atomic_weight": [102.9055, 232.0377], "includesElement__covalent_radius_cordero": [142.0, 206.0], "includesElement__covalent_radius_pyykko": [125.0, 175.0], "includesElement__covalent_radius_pyykko_double": [110.0, 143.0], "includesElement__covalent_radius_pyykko_triple": [106.0, 136.0], "includesElement__density": [12.4, 11.7], "includesElement__dipole_polarizability": [66.0, 217.0], "includesElement__dipole_polarizability_unc": [10.0, 54.0], "includesElement__discovery_year": [1803, 1828], "includesElement__electron_affinity": [1.137], "includesElement__electronegativity_allred-rochow": [0.0002176, 0.0001028571], "includesElement__electronegativity_cottrell-sutton": [0.1649242, 0.1341641], "includesElement__electronegativity_ghosh": [0.1408379, 0.10277], "includesElement__electronegativity_gordy": [0.0272, 0.018], "includesElement__electronegativity_mulliken": [4.29795, 3.15335], "includesElement__electronegativity_nagle": [0.5147142, 0.2641598], "includesElement__electronegativity_pauling": [2.28, 1.3], "includesElement__electronegativity_sanderson": [0.9761915, 0.5557019], "includesElement__en_ghosh": [0.1408379, 0.10277], "includesElement__en_pauling": [2.28, 1.3], "includesElement__evaporation_heat": [494.0, 513.7], "includesElement__fusion_heat": [21.8, 16.11], "includesElement__glawe_number": [63, 34], "includesElement__group_id": [9], "includesElement__heat_of_formation": [556.0, 602.0], "includesElement__is_radioactive": [false, true], "includesElement__lattice_constant": [3.8, 5.08], "includesElement__mendeleev_number": [64, 16], "includesElement__molar_heat_capacity": [24.98, 27.32], "includesElement__period": [5, 7], "includesElement__pettifor_number": [66, 47], "includesElement__specific_heat_capacity": [0.243, 0.118], "includesElement__vdw_radius": [210.0, 245.0], "includesElement__vdw_radius_alvarez": [244.0, 293.0], "includesElement__vdw_radius_mm3": [234.0, 274.0], "includesElement__vdw_radius_uff": [292.9, 339.6], "includesElement__atomic_weight_uncertainty": [2e-05, 0.0004], "includesElement__c6_gb": [708.0], "includesElement__electronegativity_allen": [9.259], "includesElement__en_allen": [9.259], "includesElement__metallic_radius": [125.0], "includesElement__metallic_radius_c12": [134.0], "includesElement__thermal_conductivity": [150.0], "includesElement__vdw_radius_batsanov": [200.0, 240.0], "includesElement__is_monoisotopic": [true], "includesElement__gas_basicity": [745.4], "includesElement__proton_affinity": [768.0], "includesElement__abundance_sea": [1e-06], "formula": ["Rh6Th14"], "spacegroup": ["186"], "thermalConductivity": [1.177], "icsd": ["150667"], "band_gap": [0.0], "density": [11.72735], "density_atomic": [27.37015], "deprecated": [false], "efermi": [7.448302], "energy_above_hull": [0.0], "energy_per_atom": [-59.28908], "formation_energy_per_atom": [-0.6155274], "is_gap_direct": [false], "is_magnetic": [false], "is_metal": [true], "is_stable": [true], "nelements": [2], "nsites": [20], "num_magnetic_sites": [0], "num_unique_magnetic_sites": [0], "theoretical": [false], "total_magnetization": [2e-07], "total_magnetization_normalized_formula_units": [1e-07], "total_magnetization_normalized_vol": [3.653615e-10], "uncorrected_energy_per_atom": [-59.28908], "volume": [547.4031], "equilibrium_reaction_energy_per_atom": [-0.01058337]}