{"includesElement": ["", "Se", "Ge"], "includesElement___series_id": [1, 5], "includesElement__abundance_crust": [0.05, 1.5], "includesElement__atomic_number": [34, 32], "includesElement__atomic_radius": [115.0, 125.0], "includesElement__atomic_radius_rahm": [224.0, 234.0], "includesElement__atomic_volume": [16.5, 13.6], "includesElement__atomic_weight": [78.971, 72.63], "includesElement__covalent_radius_cordero": [120.0], "includesElement__covalent_radius_pyykko": [116.0, 121.0], "includesElement__covalent_radius_pyykko_double": [107.0, 111.0], "includesElement__covalent_radius_pyykko_triple": [107.0, 114.0], "includesElement__density": [4.809, 5.3234], "includesElement__dipole_polarizability": [28.9, 40.0], "includesElement__dipole_polarizability_unc": [1.0], "includesElement__discovery_year": [1818, 1886], "includesElement__electron_affinity": [2.02067, 1.232712], "includesElement__electronegativity_allred-rochow": [0.0005164982, 0.0003859026], "includesElement__electronegativity_cottrell-sutton": [0.2447729, 0.2160884], "includesElement__electronegativity_ghosh": [0.2240328, 0.1895892], "includesElement__electronegativity_gordy": [0.05991379, 0.04669421], "includesElement__electronegativity_mulliken": [5.886531, 4.566073], "includesElement__electronegativity_nagle": [0.592131, 0.4641589], "includesElement__electronegativity_pauling": [2.55, 2.01], "includesElement__electronegativity_sanderson": [0.9659121, 0.8001471], "includesElement__en_ghosh": [0.2240328, 0.1895892], "includesElement__en_pauling": [2.55, 2.01], "includesElement__evaporation_heat": [59.7, 328.0], "includesElement__fusion_heat": [5.23, 36.8], "includesElement__glawe_number": [95, 84], "includesElement__group_id": [16, 14], "includesElement__heat_of_formation": [227.2, 372.0], "includesElement__is_radioactive": [false], "includesElement__lattice_constant": [4.36, 5.66], "includesElement__mendeleev_number": [101, 89], "includesElement__molar_heat_capacity": [25.363, 23.222], "includesElement__period": [4], "includesElement__pettifor_number": [93, 84], "includesElement__specific_heat_capacity": [0.321, 0.32], "includesElement__vdw_radius": [190.0, 211.0], "includesElement__vdw_radius_alvarez": [182.0, 229.0], "includesElement__vdw_radius_mm3": [229.0, 244.0], "includesElement__vdw_radius_uff": [420.5, 428.0], "includesElement__abundance_sea": [0.0002, 5e-05], "includesElement__atomic_weight_uncertainty": [0.008], "includesElement__c6_gb": [233.0, 365.0], "includesElement__covalent_radius_bragg": [117.0], "includesElement__electronegativity_allen": [14.34, 11.8], "includesElement__en_allen": [14.34, 11.8], "includesElement__metallic_radius": [117.0, 124.0], "includesElement__metallic_radius_c12": [140.0, 144.0], "includesElement__thermal_conductivity": [0.52, 60.2], "includesElement__vdw_radius_batsanov": [190.0, 210.0], "includesElement__c6": [210.0, 354.0], "includesElement__vdw_radius_dreiding": [403.0, 427.0], "includesElement__vdw_radius_bondi": [190.0], "includesElement__vdw_radius_truhlar": [211.0], "formula": ["Ge1Se1"], "spacegroup": ["225"], "thermalConductivity": [12.6016], "icsd": ["53906"], "band_gap": [0.0153], "density": [5.6822], "density_atomic": [22.15143], "deprecated": [false], "efermi": [5.028042], "energy_above_hull": [0.06116251], "energy_per_atom": [-4.45001], "formation_energy_per_atom": [-0.3905406], "homogeneous_poisson": [0.193], "is_gap_direct": [false], "is_magnetic": [false], "is_metal": [false], "is_stable": [false], "nelements": [2], "nsites": [2], "num_magnetic_sites": [0], "num_unique_magnetic_sites": [0], "theoretical": [false], "total_magnetization": [0.0], "total_magnetization_normalized_formula_units": [0.0], "total_magnetization_normalized_vol": [0.0], "uncorrected_energy_per_atom": [-14.233], "universal_anisotropy": [1.024], "volume": [44.30286], "cbm": [5.0368], "vbm": [5.0215]}