{"includesElement": ["", "Er"], "includesElement___series_id": [9], "includesElement__abundance_crust": [3.5], "includesElement__atomic_number": [68], "includesElement__atomic_radius": [175.0], "includesElement__atomic_radius_rahm": [272.0], "includesElement__atomic_volume": [18.4], "includesElement__atomic_weight": [167.259], "includesElement__covalent_radius_cordero": [189.0], "includesElement__covalent_radius_pyykko": [165.0], "includesElement__covalent_radius_pyykko_double": [133.0], "includesElement__density": [9.07], "includesElement__dipole_polarizability": [150.0], "includesElement__dipole_polarizability_unc": [10.0], "includesElement__discovery_year": [1843], "includesElement__electronegativity_allred-rochow": [0.0001046832], "includesElement__electronegativity_cottrell-sutton": [0.1314257], "includesElement__electronegativity_ghosh": [0.212261], "includesElement__electronegativity_gordy": [0.01727273], "includesElement__electronegativity_mulliken": [3.05385], "includesElement__electronegativity_nagle": [0.4536061], "includesElement__electronegativity_pauling": [1.24], "includesElement__electronegativity_sanderson": [0.5576573], "includesElement__en_ghosh": [0.212261], "includesElement__en_pauling": [1.24], "includesElement__evaporation_heat": [317.0], "includesElement__glawe_number": [22], "includesElement__heat_of_formation": [316.4], "includesElement__is_radioactive": [false], "includesElement__lattice_constant": [3.56], "includesElement__mendeleev_number": [35], "includesElement__molar_heat_capacity": [28.12], "includesElement__period": [6], "includesElement__pettifor_number": [23], "includesElement__specific_heat_capacity": [0.168], "includesElement__vdw_radius": [229.0], "includesElement__vdw_radius_alvarez": [283.0], "includesElement__vdw_radius_mm3": [267.0], "includesElement__vdw_radius_uff": [339.1], "includesElement__abundance_sea": [8.7e-07], "includesElement__atomic_weight_uncertainty": [0.003], "includesElement__c6_gb": [2150.0], "formula": ["Er2"], "spacegroup": ["194"], "thermalConductivity": [16.1785], "icsd": ["247674"], "band_gap": [0.0], "density": [9.044822], "density_atomic": [30.70708], "deprecated": [false], "efermi": [3.094414], "energy_above_hull": [0.01244172], "energy_per_atom": [-33.91299], "formation_energy_per_atom": [0.01244172], "has_reconstructed": [false], "homogeneous_poisson": [0.219], "is_gap_direct": [false], "is_magnetic": [false], "is_metal": [true], "is_stable": [false], "nelements": [1], "nsites": [2], "num_magnetic_sites": [0], "num_unique_magnetic_sites": [0], "shape_factor": [4.993843], "surface_anisotropy": [0.03161101], "theoretical": [false], "total_magnetization": [4.2e-06], "total_magnetization_normalized_formula_units": [2.1e-06], "total_magnetization_normalized_vol": [6.838813e-08], "uncorrected_energy_per_atom": [-33.91299], "universal_anisotropy": [0.013], "volume": [61.41417], "weighted_surface_energy": [1.04417], "weighted_surface_energy_EV_PER_ANG2": [0.06517199], "weighted_work_function": [2.924646]}