{"includesElement": ["", "Tl", "Y"], "includesElement___series_id": [7, 8], "includesElement__abundance_crust": [0.85, 33.0], "includesElement__atomic_number": [81, 39], "includesElement__atomic_radius": [190.0, 180.0], "includesElement__atomic_radius_rahm": [242.0, 274.0], "includesElement__atomic_volume": [17.2, 19.8], "includesElement__atomic_weight": [204.38, 88.90584], "includesElement__covalent_radius_cordero": [145.0, 190.0], "includesElement__covalent_radius_pyykko": [144.0, 163.0], "includesElement__covalent_radius_pyykko_double": [142.0, 130.0], "includesElement__covalent_radius_pyykko_triple": [150.0, 124.0], "includesElement__density": [11.8, 4.47], "includesElement__dipole_polarizability": [50.0, 162.0], "includesElement__dipole_polarizability_unc": [2.0, 12.0], "includesElement__discovery_year": [1861, 1789], "includesElement__electron_affinity": [0.377, 0.307], "includesElement__electronegativity_allred-rochow": [0.0002411265, 0.0001129135], "includesElement__electronegativity_cottrell-sutton": [0.186339, 0.1356647], "includesElement__electronegativity_ghosh": [0.173447, 0.1216986], "includesElement__electronegativity_gordy": [0.03472222, 0.01840491], "includesElement__electronegativity_mulliken": [3.242643, 3.26213], "includesElement__electronegativity_nagle": [0.3914868, 0.2645668], "includesElement__electronegativity_pauling": [1.8, 1.22], "includesElement__electronegativity_sanderson": [0.9245096, 0.3923941], "includesElement__en_ghosh": [0.173447, 0.1216986], "includesElement__en_pauling": [1.8, 1.22], "includesElement__evaporation_heat": [162.4, 367.0], "includesElement__fusion_heat": [4.31, 11.5], "includesElement__glawe_number": [81, 21], "includesElement__group_id": [13, 3], "includesElement__heat_of_formation": [182.2, 424.7], "includesElement__is_radioactive": [false], "includesElement__lattice_constant": [3.46, 3.65], "includesElement__mendeleev_number": [85, 12], "includesElement__molar_heat_capacity": [26.32, 26.53], "includesElement__period": [6, 5], "includesElement__pettifor_number": [78, 19], "includesElement__specific_heat_capacity": [0.129, 0.298], "includesElement__vdw_radius": [196.0, 232.0], "includesElement__vdw_radius_alvarez": [247.0, 275.0], "includesElement__vdw_radius_mm3": [259.0, 271.0], "includesElement__vdw_radius_uff": [434.7, 334.5], "includesElement__abundance_sea": [1.9e-05, 1.3e-05], "includesElement__c6_gb": [509.0, 2600.0], "includesElement__covalent_radius_bragg": [190.0], "includesElement__metallic_radius": [144.0, 162.0], "includesElement__metallic_radius_c12": [160.0, 180.0], "includesElement__thermal_conductivity": [46.1], "includesElement__vdw_radius_batsanov": [220.0, 240.0], "includesElement__vdw_radius_bondi": [196.0], "includesElement__atomic_weight_uncertainty": [2e-05], "includesElement__electronegativity_allen": [6.631], "includesElement__en_allen": [6.631], "includesElement__is_monoisotopic": [true], "includesElement__gas_basicity": [945.9], "includesElement__proton_affinity": [967.0], "formula": ["Tl3Y1"], "spacegroup": ["221"], "thermalConductivity": [0.572749], "icsd": ["106196"], "band_gap": [0.0], "density": [11.01047], "density_atomic": [26.47005], "deprecated": [false], "efermi": [6.27456], "energy_above_hull": [0.0], "energy_per_atom": [-45.26377], "formation_energy_per_atom": [-0.3008907], "homogeneous_poisson": [0.35], "is_gap_direct": [false], "is_magnetic": [false], "is_metal": [true], "is_stable": [true], "nelements": [2], "nsites": [4], "num_magnetic_sites": [0], "num_unique_magnetic_sites": [0], "theoretical": [false], "total_magnetization": [5e-07], "total_magnetization_normalized_formula_units": [5e-07], "total_magnetization_normalized_vol": [4.722318e-09], "uncorrected_energy_per_atom": [-45.26377], "universal_anisotropy": [0.687], "volume": [105.8802], "equilibrium_reaction_energy_per_atom": [-0.02716811]}