{"includesElement": ["", "Si", "Sr"], "includesElement___series_id": [5, 4], "includesElement__abundance_crust": [282000.0, 370.0], "includesElement__atomic_number": [14, 38], "includesElement__atomic_radius": [110.0, 200.0], "includesElement__atomic_radius_rahm": [232.0, 279.0], "includesElement__atomic_volume": [12.1, 33.7], "includesElement__atomic_weight": [28.085, 87.62], "includesElement__covalent_radius_cordero": [111.0, 195.0], "includesElement__covalent_radius_pyykko": [116.0, 185.0], "includesElement__covalent_radius_pyykko_double": [107.0, 157.0], "includesElement__covalent_radius_pyykko_triple": [102.0, 139.0], "includesElement__density": [2.3296, 2.64], "includesElement__dipole_polarizability": [37.3, 197.2], "includesElement__dipole_polarizability_unc": [0.7, 0.2], "includesElement__discovery_year": [1824, 1790], "includesElement__electron_affinity": [1.389521, 0.048], "includesElement__electronegativity_allred-rochow": [0.0003084126, 8.327246e-05], "includesElement__electronegativity_cottrell-sutton": [0.1891451, 0.1241185], "includesElement__electronegativity_ghosh": [0.178503, 0.1185082], "includesElement__electronegativity_gordy": [0.03577586, 0.01540541], "includesElement__electronegativity_mulliken": [4.770602, 2.871434], "includesElement__electronegativity_nagle": [0.4750986, 0.2164584], "includesElement__electronegativity_pauling": [1.9, 0.95], "includesElement__electronegativity_sanderson": [0.3468158, 0.2631786], "includesElement__en_ghosh": [0.178503, 0.1185082], "includesElement__en_pauling": [1.9, 0.95], "includesElement__evaporation_heat": [383.0, 144.0], "includesElement__fusion_heat": [50.6, 9.2], "includesElement__glawe_number": [85, 15], "includesElement__group_id": [14, 2], "includesElement__heat_of_formation": [450.0, 164.0], "includesElement__is_radioactive": [false], "includesElement__lattice_constant": [5.43, 6.08], "includesElement__mendeleev_number": [88, 8], "includesElement__molar_heat_capacity": [19.99, 26.79], "includesElement__period": [3, 5], "includesElement__pettifor_number": [85, 15], "includesElement__specific_heat_capacity": [0.712, 0.306], "includesElement__vdw_radius": [210.0, 249.0], "includesElement__vdw_radius_alvarez": [219.0, 284.0], "includesElement__vdw_radius_mm3": [229.0, 300.0], "includesElement__vdw_radius_uff": [429.5, 364.1], "includesElement__abundance_sea": [2.2, 7.9], "includesElement__c6_gb": [308.0, 3230.0], "includesElement__covalent_radius_bragg": [117.0, 195.0], "includesElement__electronegativity_allen": [11.33, 5.695], "includesElement__en_allen": [11.33, 5.695], "includesElement__metallic_radius": [117.0, 191.0], "includesElement__metallic_radius_c12": [138.0, 215.0], "includesElement__thermal_conductivity": [149.0], "includesElement__vdw_radius_batsanov": [210.0, 255.0], "includesElement__c6": [305.0, 3175.0], "includesElement__vdw_radius_dreiding": [427.0], "includesElement__gas_basicity": [814.1], "includesElement__proton_affinity": [837.0], "includesElement__vdw_radius_bondi": [210.0], "includesElement__atomic_weight_uncertainty": [0.01], "includesElement__vdw_radius_truhlar": [249.0], "formula": ["Si4Sr8"], "spacegroup": ["62"], "thermalConductivity": [1.784], "icsd": ["160102"], "band_gap": [0.3434], "density": [3.369702], "density_atomic": [33.39859], "deprecated": [false], "efermi": [2.805694], "energy_above_hull": [0.0], "energy_per_atom": [-13.45477], "formation_energy_per_atom": [-0.433073], "is_gap_direct": [true], "is_magnetic": [false], "is_metal": [false], "is_stable": [true], "nelements": [2], "nsites": [12], "num_magnetic_sites": [0], "num_unique_magnetic_sites": [0], "theoretical": [false], "total_magnetization": [0.0], "total_magnetization_normalized_formula_units": [0.0], "total_magnetization_normalized_vol": [0.0], "uncorrected_energy_per_atom": [-13.45477], "volume": [400.7831], "cbm": [3.068], "e_electronic": [16.87471], "e_ionic": [15.28814], "e_total": [32.16285], "equilibrium_reaction_energy_per_atom": [-0.08184162], "n": [4.107884], "vbm": [2.7246]}