{"includesElement": ["", "Ba", "Ga"], "includesElement___series_id": [4, 7], "includesElement__abundance_crust": [425.0, 19.0], "includesElement__atomic_number": [56, 31], "includesElement__atomic_radius": [215.0, 130.0], "includesElement__atomic_radius_rahm": [293.0, 233.0], "includesElement__atomic_volume": [39.0, 11.8], "includesElement__atomic_weight": [137.327, 69.723], "includesElement__covalent_radius_cordero": [215.0, 122.0], "includesElement__covalent_radius_pyykko": [196.0, 124.0], "includesElement__covalent_radius_pyykko_double": [161.0, 117.0], "includesElement__covalent_radius_pyykko_triple": [149.0, 121.0], "includesElement__density": [3.62, 5.91], "includesElement__dipole_polarizability": [272.0, 50.0], "includesElement__dipole_polarizability_unc": [10.0, 3.0], "includesElement__discovery_year": [1808, 1875], "includesElement__electron_affinity": [0.14462, 0.43], "includesElement__electronegativity_allred-rochow": [7.418784e-05, 0.0003251821], "includesElement__electronegativity_cottrell-sutton": [0.1205853, 0.2008048], "includesElement__electronegativity_ghosh": [0.1586786, 0.1723773], "includesElement__electronegativity_gordy": [0.01454082, 0.04032258], "includesElement__electronegativity_mulliken": [2.678142, 3.214651], "includesElement__electronegativity_nagle": [0.1944556, 0.3914868], "includesElement__electronegativity_pauling": [0.89, 1.81], "includesElement__electronegativity_sanderson": [0.3032951, 0.720541], "includesElement__en_ghosh": [0.1586786, 0.1723773], "includesElement__en_pauling": [0.89, 1.81], "includesElement__evaporation_heat": [142.0, 270.3], "includesElement__fusion_heat": [7.66, 5.59], "includesElement__glawe_number": [14, 79], "includesElement__group_id": [2, 13], "includesElement__heat_of_formation": [179.1, 271.96], "includesElement__is_radioactive": [false], "includesElement__lattice_constant": [5.02, 4.51], "includesElement__mendeleev_number": [9, 83], "includesElement__molar_heat_capacity": [28.07, 26.03], "includesElement__period": [6, 4], "includesElement__pettifor_number": [14, 81], "includesElement__specific_heat_capacity": [0.204, 0.373], "includesElement__vdw_radius": [268.0, 187.0], "includesElement__vdw_radius_alvarez": [303.0, 232.0], "includesElement__vdw_radius_mm3": [307.0, 246.0], "includesElement__vdw_radius_uff": [370.3, 438.3], "includesElement__abundance_sea": [0.013, 3e-05], "includesElement__atomic_weight_uncertainty": [0.007, 0.001], "includesElement__c6_gb": [5540.0, 456.0], "includesElement__covalent_radius_bragg": [210.0], "includesElement__electronegativity_allen": [5.211, 10.39], "includesElement__en_allen": [5.211, 10.39], "includesElement__metallic_radius": [198.0, 125.0], "includesElement__metallic_radius_c12": [222.0, 140.0], "includesElement__vdw_radius_batsanov": [270.0, 210.0], "includesElement__vdw_radius_truhlar": [268.0], "includesElement__thermal_conductivity": [28.1], "includesElement__c6": [498.0], "includesElement__vdw_radius_dreiding": [439.0], "includesElement__vdw_radius_bondi": [187.0], "formula": ["Ba1Ga2"], "spacegroup": ["191"], "thermalConductivity": [3.27235], "icsd": ["150472"], "band_gap": [0.0], "density": [5.279181], "density_atomic": [29.01917], "deprecated": [false], "efermi": [2.429202], "energy_above_hull": [0.0], "energy_per_atom": [-3.121699], "formation_energy_per_atom": [-0.4633102], "homogeneous_poisson": [0.22], "is_gap_direct": [false], "is_magnetic": [false], "is_metal": [true], "is_stable": [true], "nelements": [2], "nsites": [3], "num_magnetic_sites": [0], "num_unique_magnetic_sites": [0], "theoretical": [false], "total_magnetization": [1.63e-05], "total_magnetization_normalized_formula_units": [1.63e-05], "total_magnetization_normalized_vol": [1.872326e-07], "uncorrected_energy_per_atom": [-17.00412], "universal_anisotropy": [0.092], "volume": [87.05751], "equilibrium_reaction_energy_per_atom": [-0.03448531]}