{"includesElement": ["", "Ag", "Th"], "includesElement___series_id": [8, 10], "includesElement__abundance_crust": [0.075, 9.6], "includesElement__atomic_number": [47, 90], "includesElement__atomic_radius": [160.0, 180.0], "includesElement__atomic_radius_rahm": [225.0, 288.0], "includesElement__atomic_volume": [10.3, 19.8], "includesElement__atomic_weight": [107.8682, 232.0377], "includesElement__covalent_radius_cordero": [145.0, 206.0], "includesElement__covalent_radius_pyykko": [128.0, 175.0], "includesElement__covalent_radius_pyykko_double": [139.0, 143.0], "includesElement__covalent_radius_pyykko_triple": [137.0, 136.0], "includesElement__density": [10.5, 11.7], "includesElement__dipole_polarizability": [55.0, 217.0], "includesElement__dipole_polarizability_unc": [8.0, 54.0], "includesElement__electron_affinity": [1.302], "includesElement__electronegativity_allred-rochow": [0.0002258301, 0.0001028571], "includesElement__electronegativity_cottrell-sutton": [0.1700184, 0.1341641], "includesElement__electronegativity_ghosh": [0.1472165, 0.10277], "includesElement__electronegativity_gordy": [0.02890625, 0.018], "includesElement__electronegativity_mulliken": [4.439117, 3.15335], "includesElement__electronegativity_nagle": [0.5848035, 0.2641598], "includesElement__electronegativity_pauling": [1.93, 1.3], "includesElement__electronegativity_sanderson": [0.9437955, 0.5557019], "includesElement__en_ghosh": [0.1472165, 0.10277], "includesElement__en_pauling": [1.93, 1.3], "includesElement__evaporation_heat": [254.1, 513.7], "includesElement__fusion_heat": [11.95, 16.11], "includesElement__glawe_number": [67, 34], "includesElement__group_id": [11], "includesElement__heat_of_formation": [284.9, 602.0], "includesElement__is_radioactive": [false, true], "includesElement__lattice_constant": [4.09, 5.08], "includesElement__mendeleev_number": [72, 16], "includesElement__molar_heat_capacity": [25.35, 27.32], "includesElement__period": [5, 7], "includesElement__pettifor_number": [71, 47], "includesElement__specific_heat_capacity": [0.235, 0.118], "includesElement__vdw_radius": [211.0, 245.0], "includesElement__vdw_radius_alvarez": [253.0, 293.0], "includesElement__vdw_radius_mm3": [243.0, 274.0], "includesElement__vdw_radius_uff": [314.8, 339.6], "includesElement__abundance_sea": [4e-05, 1e-06], "includesElement__atomic_weight_uncertainty": [0.0002, 0.0004], "includesElement__c6_gb": [341.0], "includesElement__covalent_radius_bragg": [177.0], "includesElement__electronegativity_allen": [11.05], "includesElement__en_allen": [11.05], "includesElement__metallic_radius": [134.0], "includesElement__metallic_radius_c12": [144.0], "includesElement__thermal_conductivity": [429.0], "includesElement__vdw_radius_batsanov": [210.0, 240.0], "includesElement__discovery_year": [1828], "formula": ["Ag2Th4"], "spacegroup": ["140"], "thermalConductivity": [1.18724], "icsd": ["150643"], "band_gap": [0.0], "density": [11.26476], "density_atomic": [28.10344], "deprecated": [false], "efermi": [6.586202], "energy_above_hull": [0.01875231], "energy_per_atom": [-5.954396], "formation_energy_per_atom": [-0.06417755], "homogeneous_poisson": [0.345], "is_gap_direct": [false], "is_magnetic": [false], "is_metal": [true], "is_stable": [false], "nelements": [2], "nsites": [6], "num_magnetic_sites": [0], "num_unique_magnetic_sites": [0], "theoretical": [false], "total_magnetization": [7.4e-06], "total_magnetization_normalized_formula_units": [3.7e-06], "total_magnetization_normalized_vol": [4.388549e-08], "uncorrected_energy_per_atom": [-56.17048], "universal_anisotropy": [0.168], "volume": [168.6206]}