{"includesElement": ["", "Bi", "Sr"], "includesElement___series_id": [7, 4], "includesElement__abundance_crust": [0.0085, 370.0], "includesElement__atomic_number": [83, 38], "includesElement__atomic_radius": [160.0, 200.0], "includesElement__atomic_radius_rahm": [250.0, 279.0], "includesElement__atomic_volume": [21.3, 33.7], "includesElement__atomic_weight": [208.9804, 87.62], "includesElement__covalent_radius_cordero": [148.0, 195.0], "includesElement__covalent_radius_pyykko": [151.0, 185.0], "includesElement__covalent_radius_pyykko_double": [141.0, 157.0], "includesElement__covalent_radius_pyykko_triple": [135.0, 139.0], "includesElement__density": [9.79, 2.64], "includesElement__dipole_polarizability": [48.0, 197.2], "includesElement__dipole_polarizability_unc": [4.0, 0.2], "includesElement__electron_affinity": [0.942362, 0.048], "includesElement__electronegativity_allred-rochow": [0.0002763037, 8.327246e-05], "includesElement__electronegativity_cottrell-sutton": [0.2042593, 0.1241185], "includesElement__electronegativity_ghosh": [0.182377, 0.1185082], "includesElement__electronegativity_gordy": [0.04172185, 0.01540541], "includesElement__electronegativity_mulliken": [4.113939, 2.871434], "includesElement__electronegativity_nagle": [0.470518, 0.2164584], "includesElement__electronegativity_pauling": [1.9, 0.95], "includesElement__electronegativity_sanderson": [0.8136501, 0.2631786], "includesElement__en_ghosh": [0.182377, 0.1185082], "includesElement__en_pauling": [1.9, 0.95], "includesElement__evaporation_heat": [172.0, 144.0], "includesElement__fusion_heat": [11.0, 9.2], "includesElement__glawe_number": [92, 15], "includesElement__group_id": [15, 2], "includesElement__heat_of_formation": [209.6, 164.0], "includesElement__is_radioactive": [false], "includesElement__lattice_constant": [4.75, 6.08], "includesElement__mendeleev_number": [97, 8], "includesElement__molar_heat_capacity": [25.52, 26.79], "includesElement__period": [6, 5], "includesElement__pettifor_number": [87, 15], "includesElement__specific_heat_capacity": [0.122, 0.306], "includesElement__vdw_radius": [207.0, 249.0], "includesElement__vdw_radius_alvarez": [254.0, 284.0], "includesElement__vdw_radius_mm3": [266.0, 300.0], "includesElement__vdw_radius_uff": [437.0, 364.1], "includesElement__abundance_sea": [2e-05, 7.9], "includesElement__atomic_weight_uncertainty": [1e-05, 0.01], "includesElement__c6_gb": [513.0, 3230.0], "includesElement__covalent_radius_bragg": [148.0, 195.0], "includesElement__electronegativity_allen": [11.9, 5.695], "includesElement__en_allen": [11.9, 5.695], "includesElement__metallic_radius": [151.0, 191.0], "includesElement__metallic_radius_c12": [178.0, 215.0], "includesElement__thermal_conductivity": [7.9], "includesElement__vdw_radius_batsanov": [230.0, 255.0], "includesElement__is_monoisotopic": [true], "includesElement__vdw_radius_truhlar": [207.0, 249.0], "includesElement__discovery_year": [1790], "includesElement__c6": [3175.0], "formula": ["Bi3Sr1"], "spacegroup": ["221"], "thermalConductivity": [0.924157], "icsd": ["58858"], "band_gap": [0.0], "density": [9.201148], "density_atomic": [32.23937], "deprecated": [false], "efermi": [5.702158], "energy_above_hull": [0.0], "energy_per_atom": [-3.777841], "formation_energy_per_atom": [-0.4743669], "homogeneous_poisson": [0.343], "is_gap_direct": [false], "is_magnetic": [false], "is_metal": [true], "is_stable": [true], "nelements": [2], "nsites": [4], "num_magnetic_sites": [0], "num_unique_magnetic_sites": [0], "theoretical": [false], "total_magnetization": [4.1e-06], "total_magnetization_normalized_formula_units": [4.1e-06], "total_magnetization_normalized_vol": [3.179343e-08], "uncorrected_energy_per_atom": [-48.11944], "universal_anisotropy": [0.468], "volume": [128.9575], "equilibrium_reaction_energy_per_atom": [-0.01619159]}