{"includesElement": ["", "P", "Sn"], "includesElement___series_id": [1, 7], "includesElement__abundance_crust": [1050.0, 2.3], "includesElement__atomic_number": [15, 50], "includesElement__atomic_radius": [100.0, 145.0], "includesElement__atomic_radius_rahm": [223.0, 248.0], "includesElement__atomic_volume": [17.0, 16.3], "includesElement__atomic_weight": [30.97376, 118.71], "includesElement__covalent_radius_cordero": [107.0, 139.0], "includesElement__covalent_radius_pyykko": [111.0, 140.0], "includesElement__covalent_radius_pyykko_double": [102.0, 130.0], "includesElement__covalent_radius_pyykko_triple": [94.0, 132.0], "includesElement__density": [1.823, 7.287], "includesElement__dipole_polarizability": [25.0, 53.0], "includesElement__dipole_polarizability_unc": [1.0, 6.0], "includesElement__discovery_year": [1669], "includesElement__electron_affinity": [0.746607, 1.112067], "includesElement__electronegativity_allred-rochow": [0.0003895788, 0.0002882653], "includesElement__electronegativity_cottrell-sutton": [0.2079501, 0.2008909], "includesElement__electronegativity_ghosh": [0.206931, 0.178052], "includesElement__electronegativity_gordy": [0.04324324, 0.04035714], "includesElement__electronegativity_mulliken": [5.616646, 4.227992], "includesElement__electronegativity_nagle": [0.5848035, 0.4225986], "includesElement__electronegativity_pauling": [2.19, 1.96], "includesElement__electronegativity_sanderson": [0.4510269, 0.7622797], "includesElement__en_ghosh": [0.206931, 0.178052], "includesElement__en_pauling": [2.19, 1.96], "includesElement__evaporation_heat": [49.8, 296.0], "includesElement__fusion_heat": [2.51, 7.07], "includesElement__glawe_number": [89, 83], "includesElement__group_id": [15, 14], "includesElement__heat_of_formation": [316.5, 301.2], "includesElement__is_radioactive": [false], "includesElement__lattice_constant": [7.17, 5.82], "includesElement__mendeleev_number": [94, 90], "includesElement__molar_heat_capacity": [23.824, 26.99], "includesElement__period": [3, 5], "includesElement__pettifor_number": [90, 83], "includesElement__specific_heat_capacity": [0.769, 0.227], "includesElement__vdw_radius": [180.0, 217.0], "includesElement__vdw_radius_alvarez": [190.0, 242.0], "includesElement__vdw_radius_mm3": [222.0, 259.0], "includesElement__vdw_radius_uff": [414.7, 439.2], "includesElement__abundance_sea": [0.06, 4e-06], "includesElement__atomic_weight_uncertainty": [5e-09, 0.007], "includesElement__c6_gb": [187.0, 715.0], "includesElement__electronegativity_allen": [13.33, 10.79], "includesElement__en_allen": [13.33, 10.79], "includesElement__metallic_radius": [110.0, 142.0], "includesElement__metallic_radius_c12": [128.0, 163.0], "includesElement__vdw_radius_batsanov": [195.0, 225.0], "includesElement__c6": [185.0, 659.0], "includesElement__is_monoisotopic": [true], "includesElement__vdw_radius_dreiding": [415.0, 447.0], "includesElement__gas_basicity": [604.8], "includesElement__proton_affinity": [626.8], "includesElement__vdw_radius_bondi": [180.0, 217.0], "includesElement__covalent_radius_bragg": [140.0], "includesElement__thermal_conductivity": [66.8], "formula": ["P1Sn1"], "spacegroup": ["107"], "thermalConductivity": [8.75021], "icsd": ["16077"], "band_gap": [0.0], "density": [5.551904], "density_atomic": [22.38473], "deprecated": [false], "efermi": [6.847872], "energy_above_hull": [0.01065819], "energy_per_atom": [-16.86803], "formation_energy_per_atom": [0.006095231], "is_gap_direct": [false], "is_magnetic": [false], "is_metal": [true], "is_stable": [false], "nelements": [2], "nsites": [2], "num_magnetic_sites": [0], "num_unique_magnetic_sites": [0], "theoretical": [false], "total_magnetization": [0.0], "total_magnetization_normalized_formula_units": [0.0], "total_magnetization_normalized_vol": [0.0], "uncorrected_energy_per_atom": [-16.86803], "volume": [44.76946]}