{"includesElement": ["", "O", "Yb"], "includesElement___series_id": [1, 9], "includesElement__abundance_crust": [461000.0, 3.2], "includesElement__atomic_number": [8, 70], "includesElement__atomic_radius": [60.0, 175.0], "includesElement__atomic_radius_rahm": [171.0, 277.0], "includesElement__atomic_volume": [14.0, 24.8], "includesElement__atomic_weight": [15.999, 173.045], "includesElement__covalent_radius_cordero": [66.0, 187.0], "includesElement__covalent_radius_pyykko": [63.0, 170.0], "includesElement__covalent_radius_pyykko_double": [57.0, 129.0], "includesElement__covalent_radius_pyykko_triple": [53.0], "includesElement__density": [0.001308, 6.9], "includesElement__dipole_polarizability": [5.3, 139.0], "includesElement__dipole_polarizability_unc": [0.2, 6.0], "includesElement__discovery_year": [1774, 1878], "includesElement__electron_affinity": [1.461113, -0.02], "includesElement__electronegativity_allred-rochow": [0.001146384, 9.861592e-05], "includesElement__electronegativity_cottrell-sutton": [0.2687419, 0.1294786], "includesElement__electronegativity_ghosh": [0.304575, 0.22119], "includesElement__electronegativity_gordy": [0.07222222, 0.01676471], "includesElement__electronegativity_mulliken": [7.539584, 3.11708], "includesElement__electronegativity_nagle": [1.042218, 0.4864465], "includesElement__electronegativity_pauling": [3.44], "includesElement__electronegativity_sanderson": [0.9416494, 0.5176678], "includesElement__en_ghosh": [0.304575, 0.22119], "includesElement__en_pauling": [3.44], "includesElement__glawe_number": [97, 18], "includesElement__group_id": [16], "includesElement__heat_of_formation": [249.229, 155.6], "includesElement__is_radioactive": [false], "includesElement__lattice_constant": [6.83, 5.49], "includesElement__mendeleev_number": [99, 39], "includesElement__molar_heat_capacity": [29.378, 26.74], "includesElement__period": [2, 6], "includesElement__pettifor_number": [101, 17], "includesElement__specific_heat_capacity": [0.918, 0.155], "includesElement__vdw_radius": [152.0, 226.0], "includesElement__vdw_radius_alvarez": [150.0, 280.0], "includesElement__vdw_radius_mm3": [182.0, 279.0], "includesElement__vdw_radius_uff": [350.0, 335.5], "includesElement__abundance_sea": [857000.0, 8.2e-07], "includesElement__c6_gb": [16.7, 1910.0], "includesElement__covalent_radius_bragg": [65.0], "includesElement__electronegativity_allen": [21.36], "includesElement__en_allen": [21.36], "includesElement__thermal_conductivity": [0.027], "includesElement__vdw_radius_batsanov": [155.0], "includesElement__c6": [15.6], "includesElement__vdw_radius_dreiding": [340.46], "includesElement__gas_basicity": [459.6], "includesElement__proton_affinity": [485.2], "includesElement__vdw_radius_bondi": [152.0], "includesElement__vdw_radius_rt": [158.0], "includesElement__evaporation_heat": [159.0], "includesElement__fusion_heat": [3.35], "includesElement__atomic_weight_uncertainty": [0.01], "formula": ["O1Yb1"], "spacegroup": ["225"], "thermalConductivity": [17.4662], "icsd": ["151764"], "band_gap": [3.4606], "density": [11.72299], "density_atomic": [13.38853], "deprecated": [false], "efermi": [1.201571], "homogeneous_poisson": [0.21], "is_gap_direct": [false], "is_magnetic": [false], "is_metal": [false], "is_stable": [false], "nelements": [2], "nsites": [2], "num_magnetic_sites": [0], "num_unique_magnetic_sites": [0], "theoretical": [false], "total_magnetization": [0.000266], "total_magnetization_normalized_formula_units": [0.000266], "total_magnetization_normalized_vol": [9.933874e-06], "universal_anisotropy": [0.288], "volume": [26.77707], "cbm": [4.4348], "vbm": [0.9742]}