{"includesElement": ["", "P", "Ta"], "includesElement___series_id": [1, 8], "includesElement__abundance_crust": [1050.0, 2.0], "includesElement__atomic_number": [15, 73], "includesElement__atomic_radius": [100.0, 145.0], "includesElement__atomic_radius_rahm": [223.0, 258.0], "includesElement__atomic_volume": [17.0, 10.9], "includesElement__atomic_weight": [30.97376, 180.9479], "includesElement__covalent_radius_cordero": [107.0, 170.0], "includesElement__covalent_radius_pyykko": [111.0, 146.0], "includesElement__covalent_radius_pyykko_double": [102.0, 126.0], "includesElement__covalent_radius_pyykko_triple": [94.0, 119.0], "includesElement__density": [1.823, 16.4], "includesElement__dipole_polarizability": [25.0, 74.0], "includesElement__dipole_polarizability_unc": [1.0, 20.0], "includesElement__discovery_year": [1669, 1802], "includesElement__electron_affinity": [0.746607, 0.322], "includesElement__electronegativity_allred-rochow": [0.0003895788, 0.0001548133], "includesElement__electronegativity_cottrell-sutton": [0.2079501, 0.1503421], "includesElement__electronegativity_ghosh": [0.206931, 0.234581], "includesElement__electronegativity_gordy": [0.04324324, 0.02260274], "includesElement__electronegativity_mulliken": [5.616646, 3.935785], "includesElement__electronegativity_nagle": [0.5848035, 0.4072985], "includesElement__electronegativity_pauling": [2.19, 1.5], "includesElement__electronegativity_sanderson": [0.4510269, 0.8358832], "includesElement__en_ghosh": [0.206931, 0.234581], "includesElement__en_pauling": [2.19, 1.5], "includesElement__evaporation_heat": [49.8, 758.0], "includesElement__fusion_heat": [2.51, 24.7], "includesElement__glawe_number": [89, 52], "includesElement__group_id": [15, 5], "includesElement__heat_of_formation": [316.5, 782.0], "includesElement__is_radioactive": [false], "includesElement__lattice_constant": [7.17, 3.31], "includesElement__mendeleev_number": [94, 49], "includesElement__molar_heat_capacity": [23.824, 25.36], "includesElement__period": [3, 6], "includesElement__pettifor_number": [90, 53], "includesElement__specific_heat_capacity": [0.769, 0.14], "includesElement__vdw_radius": [180.0, 222.0], "includesElement__vdw_radius_alvarez": [190.0, 253.0], "includesElement__vdw_radius_mm3": [222.0, 243.0], "includesElement__vdw_radius_uff": [414.7, 317.0], "includesElement__abundance_sea": [0.06, 2e-06], "includesElement__atomic_weight_uncertainty": [5e-09, 2e-05], "includesElement__c6_gb": [187.0, 887.0], "includesElement__electronegativity_allen": [13.33, 7.93], "includesElement__en_allen": [13.33, 7.93], "includesElement__metallic_radius": [110.0, 134.0], "includesElement__metallic_radius_c12": [128.0, 146.0], "includesElement__vdw_radius_batsanov": [195.0, 220.0], "includesElement__c6": [185.0], "includesElement__is_monoisotopic": [true], "includesElement__vdw_radius_dreiding": [415.0], "includesElement__gas_basicity": [604.8], "includesElement__proton_affinity": [626.8], "includesElement__vdw_radius_bondi": [180.0], "includesElement__thermal_conductivity": [57.5], "formula": ["P2Ta2"], "spacegroup": ["141"], "thermalConductivity": [12.87], "icsd": ["108656"], "band_gap": [0.0], "density": [10.97053], "density_atomic": [16.03862], "deprecated": [false], "efermi": [7.760951], "energy_above_hull": [0.6853355], "energy_per_atom": [-29.10718], "formation_energy_per_atom": [-0.3102296], "is_gap_direct": [false], "is_magnetic": [false], "is_metal": [true], "is_stable": [false], "nelements": [2], "nsites": [4], "num_magnetic_sites": [0], "num_unique_magnetic_sites": [0], "theoretical": [false], "total_magnetization": [0.0046208], "total_magnetization_normalized_formula_units": [0.0023104], "total_magnetization_normalized_vol": [7.202616e-05], "uncorrected_energy_per_atom": [-8.88892], "volume": [64.15447]}