{"includesElement": ["", "Hg", "Pt"], "includesElement___series_id": [8], "includesElement__abundance_crust": [0.085, 0.005], "includesElement__atomic_number": [80, 78], "includesElement__atomic_radius": [150.0, 135.0], "includesElement__atomic_radius_rahm": [229.0, 230.0], "includesElement__atomic_volume": [14.8, 9.1], "includesElement__atomic_weight": [200.592, 195.084], "includesElement__covalent_radius_cordero": [132.0, 136.0], "includesElement__covalent_radius_pyykko": [133.0, 123.0], "includesElement__covalent_radius_pyykko_double": [142.0, 112.0], "includesElement__density": [13.5336, 21.5], "includesElement__dipole_polarizability": [33.91, 48.0], "includesElement__dipole_polarizability_unc": [0.34, 4.0], "includesElement__electronegativity_allred-rochow": [0.0002459155, 0.0002346487], "includesElement__electronegativity_cottrell-sutton": [0.1808501, 0.1698876], "includesElement__electronegativity_ghosh": [0.169, 0.25691], "includesElement__electronegativity_gordy": [0.03270677, 0.02886179], "includesElement__electronegativity_mulliken": [5.218752, 5.543415], "includesElement__electronegativity_nagle": [0.7073231, 0.5928156], "includesElement__electronegativity_pauling": [1.9, 2.2], "includesElement__electronegativity_sanderson": [1.164789, 1.45101], "includesElement__en_ghosh": [0.169, 0.25691], "includesElement__en_pauling": [1.9, 2.2], "includesElement__evaporation_heat": [58.5, 470.0], "includesElement__fusion_heat": [2.295, 21.76], "includesElement__glawe_number": [76, 64], "includesElement__group_id": [12, 10], "includesElement__heat_of_formation": [61.38, 565.7], "includesElement__is_radioactive": [false], "includesElement__lattice_constant": [2.99, 3.92], "includesElement__mendeleev_number": [79, 69], "includesElement__molar_heat_capacity": [27.983, 25.86], "includesElement__period": [6], "includesElement__pettifor_number": [74, 68], "includesElement__specific_heat_capacity": [0.14, 0.133], "includesElement__vdw_radius": [223.0, 213.0], "includesElement__vdw_radius_alvarez": [245.0, 229.0], "includesElement__vdw_radius_mm3": [253.0, 239.0], "includesElement__vdw_radius_uff": [270.5, 275.4], "includesElement__abundance_sea": [3e-05], "includesElement__atomic_weight_uncertainty": [0.003, 0.009], "includesElement__c6_gb": [268.0, 470.0], "includesElement__electronegativity_allen": [10.44, 10.16], "includesElement__en_allen": [10.44, 10.16], "includesElement__metallic_radius": [139.0, 130.0], "includesElement__metallic_radius_c12": [151.0, 139.0], "includesElement__thermal_conductivity": [8.3, 71.6], "includesElement__vdw_radius_batsanov": [205.0], "includesElement__covalent_radius_pyykko_triple": [110.0], "includesElement__discovery_year": [1735], "includesElement__electron_affinity": [2.128], "formula": ["Hg2Pt1"], "spacegroup": ["123"], "thermalConductivity": [0.900617], "icsd": ["104339"], "band_gap": [0.0], "density": [14.64327], "density_atomic": [22.53868], "deprecated": [false], "efermi": [3.160606], "energy_above_hull": [0.02214859], "energy_per_atom": [-50.15485], "formation_energy_per_atom": [-0.08040444], "homogeneous_poisson": [0.362], "is_gap_direct": [false], "is_magnetic": [false], "is_metal": [true], "is_stable": [false], "nelements": [2], "nsites": [3], "num_magnetic_sites": [0], "num_unique_magnetic_sites": [0], "theoretical": [false], "total_magnetization": [7e-07], "total_magnetization_normalized_formula_units": [7e-07], "total_magnetization_normalized_vol": [1.035258e-08], "uncorrected_energy_per_atom": [-50.15485], "universal_anisotropy": [1.977], "volume": [67.61603]}