{"includesElement": ["", "Si", "Zr"], "includesElement___series_id": [5, 8], "includesElement__abundance_crust": [282000.0, 165.0], "includesElement__atomic_number": [14, 40], "includesElement__atomic_radius": [110.0, 155.0], "includesElement__atomic_radius_rahm": [232.0, 269.0], "includesElement__atomic_volume": [12.1, 14.1], "includesElement__atomic_weight": [28.085, 91.224], "includesElement__covalent_radius_cordero": [111.0, 175.0], "includesElement__covalent_radius_pyykko": [116.0, 154.0], "includesElement__covalent_radius_pyykko_double": [107.0, 127.0], "includesElement__covalent_radius_pyykko_triple": [102.0, 121.0], "includesElement__density": [2.3296, 6.52], "includesElement__dipole_polarizability": [37.3, 112.0], "includesElement__dipole_polarizability_unc": [0.7, 13.0], "includesElement__discovery_year": [1824, 1789], "includesElement__electron_affinity": [1.389521, 0.426], "includesElement__electronegativity_allred-rochow": [0.0003084126, 0.0001328217], "includesElement__electronegativity_cottrell-sutton": [0.1891451, 0.1430194], "includesElement__electronegativity_ghosh": [0.178503, 0.1248887], "includesElement__electronegativity_gordy": [0.03577586, 0.02045455], "includesElement__electronegativity_mulliken": [4.770602, 3.52995], "includesElement__electronegativity_nagle": [0.4750986, 0.3293169], "includesElement__electronegativity_pauling": [1.9, 1.33], "includesElement__electronegativity_sanderson": [0.3468158, 0.4744467], "includesElement__en_ghosh": [0.178503, 0.1248887], "includesElement__en_pauling": [1.9, 1.33], "includesElement__evaporation_heat": [383.0, 567.0], "includesElement__fusion_heat": [50.6, 19.2], "includesElement__glawe_number": [85, 49], "includesElement__group_id": [14, 4], "includesElement__heat_of_formation": [450.0, 610.0], "includesElement__is_radioactive": [false], "includesElement__lattice_constant": [5.43, 3.23], "includesElement__mendeleev_number": [88, 44], "includesElement__molar_heat_capacity": [19.99, 25.36], "includesElement__period": [3, 5], "includesElement__pettifor_number": [85, 49], "includesElement__specific_heat_capacity": [0.712, 0.278], "includesElement__vdw_radius": [210.0, 223.0], "includesElement__vdw_radius_alvarez": [219.0, 252.0], "includesElement__vdw_radius_mm3": [229.0, 254.0], "includesElement__vdw_radius_uff": [429.5, 312.4], "includesElement__abundance_sea": [2.2, 3e-05], "includesElement__c6_gb": [308.0, 1360.0], "includesElement__covalent_radius_bragg": [117.0], "includesElement__electronegativity_allen": [11.33, 7.808], "includesElement__en_allen": [11.33, 7.808], "includesElement__metallic_radius": [117.0, 145.0], "includesElement__metallic_radius_c12": [138.0, 160.0], "includesElement__thermal_conductivity": [149.0, 22.7], "includesElement__vdw_radius_batsanov": [210.0, 230.0], "includesElement__c6": [305.0], "includesElement__vdw_radius_dreiding": [427.0], "includesElement__gas_basicity": [814.1], "includesElement__proton_affinity": [837.0], "includesElement__vdw_radius_bondi": [210.0], "includesElement__atomic_weight_uncertainty": [0.002], "formula": ["Si2Zr4"], "spacegroup": ["140"], "thermalConductivity": [18.295], "icsd": ["24717"], "band_gap": [0.0], "density": [6.004979], "density_atomic": [19.40607], "deprecated": [false], "efermi": [5.65898], "energy_above_hull": [0.0], "energy_per_atom": [-18.92423], "formation_energy_per_atom": [-0.83311], "homogeneous_poisson": [0.222], "is_gap_direct": [false], "is_magnetic": [false], "is_metal": [true], "is_stable": [true], "nelements": [2], "nsites": [6], "num_magnetic_sites": [0], "num_unique_magnetic_sites": [0], "theoretical": [false], "total_magnetization": [2e-07], "total_magnetization_normalized_formula_units": [1e-07], "total_magnetization_normalized_vol": [1.717676e-09], "uncorrected_energy_per_atom": [-18.92423], "universal_anisotropy": [0.156], "volume": [116.4364], "equilibrium_reaction_energy_per_atom": [-0.05615459]}