{"includesElement": ["", "Si", "Ru"], "includesElement___series_id": [5, 8], "includesElement__abundance_crust": [282000.0, 0.001], "includesElement__atomic_number": [14, 44], "includesElement__atomic_radius": [110.0, 130.0], "includesElement__atomic_radius_rahm": [232.0, 237.0], "includesElement__atomic_volume": [12.1, 8.3], "includesElement__atomic_weight": [28.085, 101.07], "includesElement__covalent_radius_cordero": [111.0, 146.0], "includesElement__covalent_radius_pyykko": [116.0, 125.0], "includesElement__covalent_radius_pyykko_double": [107.0, 114.0], "includesElement__covalent_radius_pyykko_triple": [102.0, 103.0], "includesElement__density": [2.3296, 12.1], "includesElement__dipole_polarizability": [37.3, 72.0], "includesElement__dipole_polarizability_unc": [0.7, 10.0], "includesElement__discovery_year": [1824, 1844], "includesElement__electron_affinity": [1.389521, 1.05], "includesElement__electronegativity_allred-rochow": [0.0003084126, 0.000208], "includesElement__electronegativity_cottrell-sutton": [0.1891451, 0.1612452], "includesElement__electronegativity_ghosh": [0.178503, 0.1376494], "includesElement__electronegativity_gordy": [0.03577586, 0.026], "includesElement__electronegativity_mulliken": [4.770602, 4.20525], "includesElement__electronegativity_nagle": [0.4750986, 0.4807499], "includesElement__electronegativity_pauling": [1.9, 2.2], "includesElement__electronegativity_sanderson": [0.3468158, 0.9579373], "includesElement__en_ghosh": [0.178503, 0.1376494], "includesElement__en_pauling": [1.9, 2.2], "includesElement__evaporation_heat": [383.0], "includesElement__fusion_heat": [50.6, 25.5], "includesElement__glawe_number": [85, 61], "includesElement__group_id": [14, 8], "includesElement__heat_of_formation": [450.0, 650.6], "includesElement__is_radioactive": [false], "includesElement__lattice_constant": [5.43, 2.7], "includesElement__mendeleev_number": [88, 60], "includesElement__molar_heat_capacity": [19.99, 24.06], "includesElement__period": [3, 5], "includesElement__pettifor_number": [85, 63], "includesElement__specific_heat_capacity": [0.712, 0.238], "includesElement__vdw_radius": [210.0, 213.0], "includesElement__vdw_radius_alvarez": [219.0, 246.0], "includesElement__vdw_radius_mm3": [229.0, 234.0], "includesElement__vdw_radius_uff": [429.5, 296.3], "includesElement__abundance_sea": [2.2, 7e-07], "includesElement__c6_gb": [308.0, 809.0], "includesElement__covalent_radius_bragg": [117.0], "includesElement__electronegativity_allen": [11.33, 9.1], "includesElement__en_allen": [11.33, 9.1], "includesElement__metallic_radius": [117.0, 125.0], "includesElement__metallic_radius_c12": [138.0, 134.0], "includesElement__thermal_conductivity": [149.0, 117.0], "includesElement__vdw_radius_batsanov": [210.0, 205.0], "includesElement__c6": [305.0], "includesElement__vdw_radius_dreiding": [427.0], "includesElement__gas_basicity": [814.1, 751.4], "includesElement__proton_affinity": [837.0, 774.0], "includesElement__vdw_radius_bondi": [210.0], "includesElement__atomic_weight_uncertainty": [0.02], "formula": ["Ru4Si4"], "spacegroup": ["198"], "thermalConductivity": [12.9984], "icsd": ["650618"], "band_gap": [0.2299], "density": [8.217654], "density_atomic": [13.04921], "deprecated": [false], "efermi": [9.866582], "energy_above_hull": [0.0], "energy_per_atom": [-17.75368], "formation_energy_per_atom": [-0.6545326], "homogeneous_poisson": [0.29], "is_gap_direct": [false], "is_magnetic": [false], "is_metal": [false], "is_stable": [true], "nelements": [2], "nsites": [8], "num_magnetic_sites": [0], "num_unique_magnetic_sites": [0], "theoretical": [false], "total_magnetization": [0.0], "total_magnetization_normalized_formula_units": [0.0], "total_magnetization_normalized_vol": [0.0], "uncorrected_energy_per_atom": [-17.75368], "universal_anisotropy": [0.759], "volume": [104.3937], "cbm": [9.9682], "e_electronic": [44.43772], "e_ionic": [16.64617], "e_total": [61.0839], "equilibrium_reaction_energy_per_atom": [-0.1384021], "n": [6.666163], "vbm": [9.7383], "e_ij_max": [1.30269]}