{"includesElement": ["", "Hg", "Pd"], "includesElement___series_id": [8], "includesElement__abundance_crust": [0.085, 0.015], "includesElement__atomic_number": [80, 46], "includesElement__atomic_radius": [150.0, 140.0], "includesElement__atomic_radius_rahm": [229.0, 215.0], "includesElement__atomic_volume": [14.8, 8.9], "includesElement__atomic_weight": [200.592, 106.42], "includesElement__covalent_radius_cordero": [132.0, 139.0], "includesElement__covalent_radius_pyykko": [133.0, 120.0], "includesElement__covalent_radius_pyykko_double": [142.0, 117.0], "includesElement__density": [13.5336, 12.0], "includesElement__dipole_polarizability": [33.91, 26.14], "includesElement__dipole_polarizability_unc": [0.34, 0.1], "includesElement__electronegativity_allred-rochow": [0.0002459155, 0.0004756944], "includesElement__electronegativity_cottrell-sutton": [0.1808501, 0.2389212], "includesElement__electronegativity_ghosh": [0.169, 0.1440276], "includesElement__electronegativity_gordy": [0.03270677, 0.05708333], "includesElement__electronegativity_mulliken": [5.218752, 4.44943], "includesElement__electronegativity_nagle": [0.7073231, 0.7259357], "includesElement__electronegativity_pauling": [1.9, 2.2], "includesElement__electronegativity_sanderson": [1.164789, 1.124263], "includesElement__en_ghosh": [0.169, 0.1440276], "includesElement__en_pauling": [1.9, 2.2], "includesElement__evaporation_heat": [58.5, 372.4], "includesElement__fusion_heat": [2.295, 17.24], "includesElement__glawe_number": [76, 65], "includesElement__group_id": [12, 10], "includesElement__heat_of_formation": [61.38, 376.6], "includesElement__is_radioactive": [false], "includesElement__lattice_constant": [2.99, 3.89], "includesElement__mendeleev_number": [79, 68], "includesElement__molar_heat_capacity": [27.983, 25.98], "includesElement__period": [6, 5], "includesElement__pettifor_number": [74, 69], "includesElement__specific_heat_capacity": [0.14, 0.246], "includesElement__vdw_radius": [223.0, 210.0], "includesElement__vdw_radius_alvarez": [245.0, 215.0], "includesElement__vdw_radius_mm3": [253.0, 237.0], "includesElement__vdw_radius_uff": [270.5, 289.9], "includesElement__abundance_sea": [3e-05], "includesElement__atomic_weight_uncertainty": [0.003, 0.01], "includesElement__c6_gb": [268.0, 628.0], "includesElement__electronegativity_allen": [10.44, 9.402], "includesElement__en_allen": [10.44, 9.402], "includesElement__metallic_radius": [139.0, 128.0], "includesElement__metallic_radius_c12": [151.0, 137.0], "includesElement__thermal_conductivity": [8.3, 71.8], "includesElement__vdw_radius_batsanov": [205.0], "includesElement__covalent_radius_pyykko_triple": [112.0], "includesElement__discovery_year": [1803], "includesElement__electron_affinity": [0.562], "includesElement__gas_basicity": [673.4], "includesElement__proton_affinity": [696.0], "formula": ["Hg1Pd1"], "spacegroup": ["123"], "thermalConductivity": [1.83017], "icsd": ["104333"], "band_gap": [0.0], "density": [14.41031], "density_atomic": [17.6888], "deprecated": [false], "efermi": [3.867271], "energy_above_hull": [0.0], "energy_per_atom": [-2.911492], "formation_energy_per_atom": [-0.1667155], "homogeneous_poisson": [0.35], "is_gap_direct": [false], "is_magnetic": [false], "is_metal": [true], "is_stable": [true], "nelements": [2], "nsites": [4], "num_magnetic_sites": [0], "num_unique_magnetic_sites": [0], "theoretical": [false], "total_magnetization": [0.0], "total_magnetization_normalized_formula_units": [0.0], "total_magnetization_normalized_vol": [0.0], "uncorrected_energy_per_atom": [-2.911492], "universal_anisotropy": [0.752], "volume": [70.7552], "equilibrium_reaction_energy_per_atom": [-0.07630462]}