{"includesElement": ["", "Sn", "Te"], "includesElement___series_id": [7, 5], "includesElement__abundance_crust": [2.3, 0.001], "includesElement__atomic_number": [50, 52], "includesElement__atomic_radius": [145.0, 140.0], "includesElement__atomic_radius_rahm": [248.0, 242.0], "includesElement__atomic_volume": [16.3, 20.5], "includesElement__atomic_weight": [118.71, 127.6], "includesElement__covalent_radius_cordero": [139.0, 138.0], "includesElement__covalent_radius_pyykko": [140.0, 136.0], "includesElement__covalent_radius_pyykko_double": [130.0, 128.0], "includesElement__covalent_radius_pyykko_triple": [132.0, 121.0], "includesElement__density": [7.287, 6.232], "includesElement__dipole_polarizability": [53.0, 38.0], "includesElement__dipole_polarizability_unc": [6.0, 4.0], "includesElement__electron_affinity": [1.112067, 1.970876], "includesElement__electronegativity_allred-rochow": [0.0002882653, 0.0003757569], "includesElement__electronegativity_cottrell-sutton": [0.2008909, 0.2260596], "includesElement__electronegativity_ghosh": [0.178052, 0.2056992], "includesElement__electronegativity_gordy": [0.04035714, 0.05110294], "includesElement__electronegativity_mulliken": [4.227992, 5.490268], "includesElement__electronegativity_nagle": [0.4225986, 0.5404919], "includesElement__electronegativity_pauling": [1.96, 2.1], "includesElement__electronegativity_sanderson": [0.7622797, 0.8622506], "includesElement__en_ghosh": [0.178052, 0.2056992], "includesElement__en_pauling": [1.96, 2.1], "includesElement__evaporation_heat": [296.0, 49.8], "includesElement__fusion_heat": [7.07, 17.91], "includesElement__glawe_number": [83, 94], "includesElement__group_id": [14, 16], "includesElement__heat_of_formation": [301.2, 196.6], "includesElement__is_radioactive": [false], "includesElement__lattice_constant": [5.82, 4.45], "includesElement__mendeleev_number": [90, 102], "includesElement__molar_heat_capacity": [26.99, 25.73], "includesElement__period": [5], "includesElement__pettifor_number": [83, 92], "includesElement__specific_heat_capacity": [0.227, 0.202], "includesElement__vdw_radius": [217.0, 206.0], "includesElement__vdw_radius_alvarez": [242.0, 199.0], "includesElement__vdw_radius_mm3": [259.0, 244.0], "includesElement__vdw_radius_uff": [439.2, 447.0], "includesElement__abundance_sea": [4e-06], "includesElement__atomic_weight_uncertainty": [0.007, 0.03], "includesElement__c6_gb": [715.0, 471.0], "includesElement__covalent_radius_bragg": [140.0, 133.0], "includesElement__electronegativity_allen": [10.79, 12.76], "includesElement__en_allen": [10.79, 12.76], "includesElement__metallic_radius": [142.0, 137.0], "includesElement__metallic_radius_c12": [163.0, 160.0], "includesElement__thermal_conductivity": [66.8, 14.3], "includesElement__vdw_radius_batsanov": [225.0, 210.0], "includesElement__c6": [659.0, 445.0], "includesElement__vdw_radius_dreiding": [447.0, 423.0], "includesElement__vdw_radius_bondi": [217.0, 206.0], "includesElement__discovery_year": [1782], "formula": ["Sn1Te1"], "spacegroup": ["225"], "thermalConductivity": [5.36039], "icsd": ["52489"], "band_gap": [0.0419], "density": [6.324705], "density_atomic": [32.33411], "deprecated": [false], "efermi": [6.32207], "energy_above_hull": [0.0], "energy_per_atom": [-25.34675], "formation_energy_per_atom": [-0.2650499], "homogeneous_poisson": [0.207], "is_gap_direct": [true], "is_magnetic": [false], "is_metal": [false], "is_stable": [true], "nelements": [2], "nsites": [2], "num_magnetic_sites": [0], "num_unique_magnetic_sites": [0], "theoretical": [false], "total_magnetization": [0.0], "total_magnetization_normalized_formula_units": [0.0], "total_magnetization_normalized_vol": [0.0], "uncorrected_energy_per_atom": [-25.34675], "universal_anisotropy": [1.978], "volume": [64.66821], "cbm": [6.343], "equilibrium_reaction_energy_per_atom": [-0.2650499], "vbm": [6.3011]}