{"includesElement": ["", "Tl", "Cl"], "includesElement___series_id": [7, 6], "includesElement__abundance_crust": [0.85, 145.0], "includesElement__atomic_number": [81, 17], "includesElement__atomic_radius": [190.0, 100.0], "includesElement__atomic_radius_rahm": [242.0, 206.0], "includesElement__atomic_volume": [17.2, 18.7], "includesElement__atomic_weight": [204.38, 35.45], "includesElement__covalent_radius_cordero": [145.0, 102.0], "includesElement__covalent_radius_pyykko": [144.0, 99.0], "includesElement__covalent_radius_pyykko_double": [142.0, 95.0], "includesElement__covalent_radius_pyykko_triple": [150.0, 93.0], "includesElement__density": [11.8, 0.002898], "includesElement__dipole_polarizability": [50.0, 14.6], "includesElement__dipole_polarizability_unc": [2.0, 0.1], "includesElement__discovery_year": [1861, 1774], "includesElement__electron_affinity": [0.377, 3.612725], "includesElement__electronegativity_allred-rochow": [0.0002411265, 0.0006223855], "includesElement__electronegativity_cottrell-sutton": [0.186339, 0.248226], "includesElement__electronegativity_ghosh": [0.173447, 0.263803], "includesElement__electronegativity_gordy": [0.03472222, 0.06161616], "includesElement__electronegativity_mulliken": [3.242643, 8.290178], "includesElement__electronegativity_nagle": [0.3914868, 0.7826755], "includesElement__electronegativity_pauling": [1.8, 3.16], "includesElement__electronegativity_sanderson": [0.9245096, 0.8123773], "includesElement__en_ghosh": [0.173447, 0.263803], "includesElement__en_pauling": [1.8, 3.16], "includesElement__evaporation_heat": [162.4, 20.41], "includesElement__fusion_heat": [4.31, 6.41], "includesElement__glawe_number": [81, 101], "includesElement__group_id": [13, 17], "includesElement__heat_of_formation": [182.2, 121.302], "includesElement__is_radioactive": [false], "includesElement__lattice_constant": [3.46, 6.24], "includesElement__mendeleev_number": [85, 107], "includesElement__molar_heat_capacity": [26.32, 33.949], "includesElement__period": [6, 3], "includesElement__pettifor_number": [78, 99], "includesElement__specific_heat_capacity": [0.129, 0.479], "includesElement__vdw_radius": [196.0, 175.0], "includesElement__vdw_radius_alvarez": [247.0, 182.0], "includesElement__vdw_radius_mm3": [259.0, 207.0], "includesElement__vdw_radius_uff": [434.7, 394.7], "includesElement__abundance_sea": [1.9e-05, 19400.0], "includesElement__c6_gb": [509.0, 97.1], "includesElement__covalent_radius_bragg": [190.0, 105.0], "includesElement__metallic_radius": [144.0], "includesElement__metallic_radius_c12": [160.0, 91.0], "includesElement__thermal_conductivity": [46.1, 0.009], "includesElement__vdw_radius_batsanov": [220.0, 180.0], "includesElement__vdw_radius_bondi": [196.0, 175.0], "includesElement__electronegativity_allen": [16.97], "includesElement__en_allen": [16.97], "includesElement__c6": [94.6], "includesElement__vdw_radius_dreiding": [395.03], "includesElement__gas_basicity": [490.1], "includesElement__proton_affinity": [513.6], "includesElement__vdw_radius_rt": [176.0], "formula": ["Cl1Tl1"], "spacegroup": ["221"], "thermalConductivity": [0.592328], "icsd": ["181755"], "band_gap": [2.1732], "density": [7.047416], "density_atomic": [28.25557], "deprecated": [false], "efermi": [2.259188], "energy_above_hull": [0.001307087], "energy_per_atom": [-3.434519], "formation_energy_per_atom": [-1.324514], "is_gap_direct": [true], "is_magnetic": [false], "is_metal": [false], "is_stable": [false], "nelements": [2], "nsites": [2], "num_magnetic_sites": [0], "num_unique_magnetic_sites": [0], "theoretical": [false], "total_magnetization": [0.0], "total_magnetization_normalized_formula_units": [0.0], "total_magnetization_normalized_vol": [0.0], "uncorrected_energy_per_atom": [-30.77573], "volume": [56.51114], "cbm": [4.3951], "e_electronic": [6.257431], "e_ionic": [28.31788], "e_total": [34.57531], "n": [2.501486], "vbm": [2.2219]}