{"includesElement": ["", "B"], "includesElement___series_id": [5], "includesElement__abundance_crust": [10.0], "includesElement__atomic_number": [5], "includesElement__atomic_radius": [85.0], "includesElement__atomic_radius_rahm": [205.0], "includesElement__atomic_volume": [4.6], "includesElement__atomic_weight": [10.81], "includesElement__covalent_radius_cordero": [84.0], "includesElement__covalent_radius_pyykko": [85.0], "includesElement__covalent_radius_pyykko_double": [78.0], "includesElement__covalent_radius_pyykko_triple": [73.0], "includesElement__density": [2.34], "includesElement__dipole_polarizability": [20.5], "includesElement__dipole_polarizability_unc": [0.1], "includesElement__discovery_year": [1808], "includesElement__electron_affinity": [0.279723], "includesElement__electronegativity_allred-rochow": [0.0003598616], "includesElement__electronegativity_cottrell-sutton": [0.1748949], "includesElement__electronegativity_ghosh": [0.184886], "includesElement__electronegativity_gordy": [0.03058824], "includesElement__electronegativity_mulliken": [4.288871], "includesElement__electronegativity_nagle": [0.5269739], "includesElement__electronegativity_pauling": [2.04], "includesElement__electronegativity_sanderson": [0.2546274], "includesElement__en_ghosh": [0.184886], "includesElement__en_pauling": [2.04], "includesElement__evaporation_heat": [504.5], "includesElement__fusion_heat": [23.6], "includesElement__glawe_number": [86], "includesElement__group_id": [13], "includesElement__heat_of_formation": [565.0], "includesElement__is_radioactive": [false], "includesElement__lattice_constant": [8.73], "includesElement__mendeleev_number": [81], "includesElement__molar_heat_capacity": [11.087], "includesElement__period": [2], "includesElement__pettifor_number": [86], "includesElement__specific_heat_capacity": [1.026], "includesElement__vdw_radius": [192.0], "includesElement__vdw_radius_alvarez": [191.0], "includesElement__vdw_radius_mm3": [215.0], "includesElement__vdw_radius_uff": [408.3], "includesElement__abundance_sea": [4.44], "includesElement__c6_gb": [99.2], "includesElement__electronegativity_allen": [12.13], "includesElement__en_allen": [12.13], "includesElement__metallic_radius": [80.0], "includesElement__metallic_radius_c12": [98.0], "includesElement__thermal_conductivity": [27.4], "includesElement__vdw_radius_batsanov": [180.0], "includesElement__c6": [99.5], "includesElement__vdw_radius_dreiding": [402.0], "includesElement__vdw_radius_truhlar": [192.0], "formula": ["B48"], "spacegroup": ["134"], "thermalConductivity": [10.1441], "icsd": ["240995"], "band_gap": [0.0], "density": [2.330182], "density_atomic": [7.704157], "deprecated": [false], "efermi": [4.126628], "energy_above_hull": [0.1552667], "energy_per_atom": [-7.191087], "formation_energy_per_atom": [0.1552667], "is_gap_direct": [false], "is_magnetic": [false], "is_metal": [true], "is_stable": [false], "nelements": [1], "nsites": [48], "num_magnetic_sites": [0], "num_unique_magnetic_sites": [0], "theoretical": [false], "total_magnetization": [1.6e-06], "total_magnetization_normalized_formula_units": [3.333333e-08], "total_magnetization_normalized_vol": [4.326669e-09], "uncorrected_energy_per_atom": [-6.524125], "volume": [369.7995]}