{"includesElement": ["", "Ce", "C"], "includesElement___series_id": [9, 1], "includesElement__abundance_crust": [66.5, 200.0], "includesElement__atomic_number": [58, 6], "includesElement__atomic_radius": [185.0, 70.0], "includesElement__atomic_radius_rahm": [282.0, 190.0], "includesElement__atomic_volume": [21.0, 5.3], "includesElement__atomic_weight": [140.116, 12.011], "includesElement__covalent_radius_cordero": [204.0, 73.0], "includesElement__covalent_radius_pyykko": [163.0, 75.0], "includesElement__covalent_radius_pyykko_double": [137.0, 67.0], "includesElement__covalent_radius_pyykko_triple": [131.0, 60.0], "includesElement__density": [6.77, 2.2], "includesElement__dipole_polarizability": [205.0, 11.3], "includesElement__dipole_polarizability_unc": [20.0, 0.2], "includesElement__discovery_year": [1803], "includesElement__electron_affinity": [0.65, 1.262119], "includesElement__electronegativity_allred-rochow": [0.0001129135, 0.0005777778], "includesElement__electronegativity_cottrell-sutton": [0.1356647, 0.2081666], "includesElement__electronegativity_ghosh": [0.16761, 0.224776], "includesElement__electronegativity_gordy": [0.01840491, 0.04333333], "includesElement__electronegativity_mulliken": [3.0943, 6.261208], "includesElement__electronegativity_nagle": [0.2692167, 0.7073926], "includesElement__electronegativity_pauling": [1.12, 2.55], "includesElement__electronegativity_sanderson": [0.5356179, 0.427525], "includesElement__en_ghosh": [0.16761, 0.224776], "includesElement__en_pauling": [1.12, 2.55], "includesElement__evaporation_heat": [398.0], "includesElement__fusion_heat": [5.2], "includesElement__glawe_number": [31, 87], "includesElement__heat_of_formation": [420.1, 716.87], "includesElement__is_radioactive": [false], "includesElement__lattice_constant": [5.16, 3.57], "includesElement__mendeleev_number": [15, 87], "includesElement__molar_heat_capacity": [26.94, 8.517], "includesElement__period": [6, 2], "includesElement__pettifor_number": [32, 95], "includesElement__specific_heat_capacity": [0.192, 0.709], "includesElement__vdw_radius": [242.0, 170.0], "includesElement__vdw_radius_alvarez": [288.0, 177.0], "includesElement__vdw_radius_mm3": [274.0, 204.0], "includesElement__vdw_radius_uff": [355.6, 385.1], "includesElement__abundance_sea": [1.2e-06, 28.0], "includesElement__atomic_weight_uncertainty": [0.001], "includesElement__c6_gb": [3480.0, 47.9], "includesElement__thermal_conductivity": [11.3, 1.59], "includesElement__group_id": [14], "includesElement__covalent_radius_bragg": [77.0], "includesElement__electronegativity_allen": [15.05], "includesElement__en_allen": [15.05], "includesElement__metallic_radius_c12": [86.0], "includesElement__vdw_radius_batsanov": [170.0], "includesElement__c6": [46.6], "includesElement__vdw_radius_dreiding": [389.83], "includesElement__vdw_radius_bondi": [170.0], "includesElement__vdw_radius_rt": [177.0], "formula": ["C1Ce1"], "spacegroup": ["225"], "thermalConductivity": [28.801], "icsd": ["617324"], "band_gap": [0.0], "density": [7.21898], "density_atomic": [17.4964], "deprecated": [false], "efermi": [7.468487], "energy_above_hull": [0.1580763], "energy_per_atom": [-7.63648], "formation_energy_per_atom": [-0.05367211], "is_gap_direct": [false], "is_magnetic": [false], "is_metal": [true], "is_stable": [false], "nelements": [2], "nsites": [2], "num_magnetic_sites": [0], "num_unique_magnetic_sites": [0], "theoretical": [false], "total_magnetization": [0.0002697], "total_magnetization_normalized_formula_units": [0.0002697], "total_magnetization_normalized_vol": [7.7073e-06], "uncorrected_energy_per_atom": [-7.63648], "volume": [34.9928]}