{"includesElement": ["", "V", "Pt"], "includesElement___series_id": [8], "includesElement__abundance_crust": [120.0, 0.005], "includesElement__atomic_number": [23, 78], "includesElement__atomic_radius": [135.0], "includesElement__atomic_radius_rahm": [252.0, 230.0], "includesElement__atomic_volume": [8.35, 9.1], "includesElement__atomic_weight": [50.9415, 195.084], "includesElement__covalent_radius_cordero": [153.0, 136.0], "includesElement__covalent_radius_pyykko": [134.0, 123.0], "includesElement__covalent_radius_pyykko_double": [112.0], "includesElement__covalent_radius_pyykko_triple": [106.0, 110.0], "includesElement__density": [6.0, 21.5], "includesElement__dipole_polarizability": [87.0, 48.0], "includesElement__dipole_polarizability_unc": [10.0, 4.0], "includesElement__discovery_year": [1830, 1735], "includesElement__electron_affinity": [0.525, 2.128], "includesElement__electronegativity_allred-rochow": [0.0001837826, 0.0002346487], "includesElement__electronegativity_cottrell-sutton": [0.1569295, 0.1698876], "includesElement__electronegativity_ghosh": [0.1273344, 0.25691], "includesElement__electronegativity_gordy": [0.02462687, 0.02886179], "includesElement__electronegativity_mulliken": [3.635594, 5.543415], "includesElement__electronegativity_nagle": [0.3859078, 0.5928156], "includesElement__electronegativity_pauling": [1.63, 2.2], "includesElement__electronegativity_sanderson": [0.4388898, 1.45101], "includesElement__en_ghosh": [0.1273344, 0.25691], "includesElement__en_pauling": [1.63, 2.2], "includesElement__evaporation_heat": [460.0, 470.0], "includesElement__fusion_heat": [17.5, 21.76], "includesElement__glawe_number": [54, 64], "includesElement__group_id": [5, 10], "includesElement__heat_of_formation": [515.5, 565.7], "includesElement__is_radioactive": [false], "includesElement__lattice_constant": [3.02, 3.92], "includesElement__mendeleev_number": [47, 69], "includesElement__molar_heat_capacity": [24.89, 25.86], "includesElement__period": [4, 6], "includesElement__pettifor_number": [54, 68], "includesElement__specific_heat_capacity": [0.489, 0.133], "includesElement__vdw_radius": [207.0, 213.0], "includesElement__vdw_radius_alvarez": [242.0, 229.0], "includesElement__vdw_radius_mm3": [229.0, 239.0], "includesElement__vdw_radius_uff": [314.4, 275.4], "includesElement__abundance_sea": [0.0025], "includesElement__atomic_weight_uncertainty": [0.0001, 0.009], "includesElement__c6_gb": [955.0, 470.0], "includesElement__electronegativity_allen": [9.063, 10.16], "includesElement__en_allen": [9.063, 10.16], "includesElement__metallic_radius": [122.0, 130.0], "includesElement__metallic_radius_c12": [134.0, 139.0], "includesElement__thermal_conductivity": [30.7, 71.6], "includesElement__vdw_radius_batsanov": [205.0], "includesElement__c6": [832.0], "includesElement__gas_basicity": [836.8], "includesElement__proton_affinity": [859.4], "formula": ["Pt3V1"], "spacegroup": ["221"], "thermalConductivity": [6.02183], "icsd": ["105841"], "band_gap": [0.0], "density": [17.79307], "density_atomic": [14.8432], "deprecated": [false], "efermi": [7.68907], "energy_above_hull": [0.0], "energy_per_atom": [-7.278878], "formation_energy_per_atom": [-0.454551], "homogeneous_poisson": [0.3], "is_gap_direct": [false], "is_magnetic": [true], "is_metal": [true], "is_stable": [true], "nelements": [2], "nsites": [4], "num_magnetic_sites": [1], "num_unique_magnetic_sites": [1], "theoretical": [false], "total_magnetization": [1.2843], "total_magnetization_normalized_formula_units": [1.2843], "total_magnetization_normalized_vol": [0.02163111], "uncorrected_energy_per_atom": [-42.67174], "universal_anisotropy": [0.336], "volume": [59.3728], "equilibrium_reaction_energy_per_atom": [-0.01721141]}