{"includesElement": ["", "Cr", "B"], "includesElement___series_id": [8, 5], "includesElement__abundance_crust": [102.0, 10.0], "includesElement__atomic_number": [24, 5], "includesElement__atomic_radius": [140.0, 85.0], "includesElement__atomic_radius_rahm": [233.0, 205.0], "includesElement__atomic_volume": [7.23, 4.6], "includesElement__atomic_weight": [51.9961, 10.81], "includesElement__covalent_radius_cordero": [139.0, 84.0], "includesElement__covalent_radius_pyykko": [122.0, 85.0], "includesElement__covalent_radius_pyykko_double": [111.0, 78.0], "includesElement__covalent_radius_pyykko_triple": [103.0, 73.0], "includesElement__density": [7.15, 2.34], "includesElement__dipole_polarizability": [83.0, 20.5], "includesElement__dipole_polarizability_unc": [12.0, 0.1], "includesElement__discovery_year": [1797, 1808], "includesElement__electron_affinity": [0.666, 0.279723], "includesElement__electronegativity_allred-rochow": [0.0001981994, 0.0003598616], "includesElement__electronegativity_cottrell-sutton": [0.1555003, 0.1748949], "includesElement__electronegativity_ghosh": [0.1313053, 0.184886], "includesElement__electronegativity_gordy": [0.02418033, 0.03058824], "includesElement__electronegativity_mulliken": [3.716255, 4.288871], "includesElement__electronegativity_nagle": [0.4165729, 0.5269739], "includesElement__electronegativity_pauling": [1.66, 2.04], "includesElement__electronegativity_sanderson": [0.6017723, 0.2546274], "includesElement__en_ghosh": [0.1313053, 0.184886], "includesElement__en_pauling": [1.66, 2.04], "includesElement__evaporation_heat": [342.0, 504.5], "includesElement__fusion_heat": [21.0, 23.6], "includesElement__glawe_number": [55, 86], "includesElement__group_id": [6, 13], "includesElement__heat_of_formation": [397.48, 565.0], "includesElement__is_radioactive": [false], "includesElement__lattice_constant": [2.88, 8.73], "includesElement__mendeleev_number": [51, 81], "includesElement__molar_heat_capacity": [23.35, 11.087], "includesElement__period": [4, 2], "includesElement__pettifor_number": [57, 86], "includesElement__specific_heat_capacity": [0.449, 1.026], "includesElement__vdw_radius": [206.0, 192.0], "includesElement__vdw_radius_alvarez": [245.0, 191.0], "includesElement__vdw_radius_mm3": [225.0, 215.0], "includesElement__vdw_radius_uff": [302.3, 408.3], "includesElement__abundance_sea": [0.0003, 4.44], "includesElement__atomic_weight_uncertainty": [0.0006], "includesElement__c6_gb": [709.0, 99.2], "includesElement__covalent_radius_bragg": [140.0], "includesElement__electronegativity_allen": [9.77, 12.13], "includesElement__en_allen": [9.77, 12.13], "includesElement__metallic_radius": [119.0, 80.0], "includesElement__metallic_radius_c12": [128.0, 98.0], "includesElement__thermal_conductivity": [93.9, 27.4], "includesElement__vdw_radius_batsanov": [205.0, 180.0], "includesElement__c6": [602.0, 99.5], "includesElement__gas_basicity": [768.4], "includesElement__proton_affinity": [791.3], "includesElement__vdw_radius_dreiding": [402.0], "includesElement__vdw_radius_truhlar": [192.0], "formula": ["B2Cr1"], "spacegroup": ["191"], "thermalConductivity": [40.0569], "icsd": ["30416"], "band_gap": [0.0], "density": [5.316402], "density_atomic": [7.664691], "deprecated": [false], "efermi": [8.678011], "energy_above_hull": [0.06712516], "energy_per_atom": [-10.18488], "formation_energy_per_atom": [-0.2628604], "homogeneous_poisson": [0.211], "is_gap_direct": [false], "is_magnetic": [true], "is_metal": [true], "is_stable": [false], "nelements": [2], "nsites": [3], "num_magnetic_sites": [1], "num_unique_magnetic_sites": [1], "theoretical": [false], "total_magnetization": [1.005662], "total_magnetization_normalized_formula_units": [1.005662], "total_magnetization_normalized_vol": [0.04373572], "uncorrected_energy_per_atom": [-8.010486], "universal_anisotropy": [0.121], "volume": [22.99407]}