{"includesElement": ["", "U", "C"], "includesElement___series_id": [10, 1], "includesElement__abundance_crust": [2.7, 200.0], "includesElement__atomic_number": [92, 6], "includesElement__atomic_radius": [175.0, 70.0], "includesElement__atomic_radius_rahm": [283.0, 190.0], "includesElement__atomic_volume": [12.5, 5.3], "includesElement__atomic_weight": [238.0289, 12.011], "includesElement__covalent_radius_cordero": [196.0, 73.0], "includesElement__covalent_radius_pyykko": [170.0, 75.0], "includesElement__covalent_radius_pyykko_double": [134.0, 67.0], "includesElement__covalent_radius_pyykko_triple": [118.0, 60.0], "includesElement__density": [19.1, 2.2], "includesElement__dipole_polarizability": [129.0, 11.3], "includesElement__dipole_polarizability_unc": [17.0, 0.2], "includesElement__discovery_year": [1789], "includesElement__electronegativity_allred-rochow": [0.0001038062, 0.0005777778], "includesElement__electronegativity_cottrell-sutton": [0.1328422, 0.2081666], "includesElement__electronegativity_ghosh": [0.13207, 0.224776], "includesElement__electronegativity_gordy": [0.01764706, 0.04333333], "includesElement__electronegativity_mulliken": [3.097025, 6.261208], "includesElement__electronegativity_nagle": [0.3596283, 0.7073926], "includesElement__electronegativity_pauling": [1.7, 2.55], "includesElement__electronegativity_sanderson": [0.618118, 0.427525], "includesElement__en_ghosh": [0.13207, 0.224776], "includesElement__en_pauling": [1.7, 2.55], "includesElement__evaporation_heat": [417.0], "includesElement__fusion_heat": [12.6], "includesElement__glawe_number": [36, 87], "includesElement__heat_of_formation": [533.0, 716.87], "includesElement__is_radioactive": [true, false], "includesElement__lattice_constant": [2.85, 3.57], "includesElement__mendeleev_number": [20, 87], "includesElement__molar_heat_capacity": [27.665, 8.517], "includesElement__period": [7, 2], "includesElement__pettifor_number": [45, 95], "includesElement__specific_heat_capacity": [0.116, 0.709], "includesElement__vdw_radius": [241.0, 170.0], "includesElement__vdw_radius_alvarez": [271.0, 177.0], "includesElement__vdw_radius_mm3": [252.0, 204.0], "includesElement__vdw_radius_uff": [339.5, 385.1], "includesElement__abundance_sea": [0.0032, 28.0], "includesElement__atomic_weight_uncertainty": [3e-05], "includesElement__thermal_conductivity": [27.5, 1.59], "includesElement__vdw_radius_batsanov": [230.0, 170.0], "includesElement__gas_basicity": [973.2], "includesElement__proton_affinity": [995.2], "includesElement__electron_affinity": [1.262119], "includesElement__group_id": [14], "includesElement__c6_gb": [47.9], "includesElement__covalent_radius_bragg": [77.0], "includesElement__electronegativity_allen": [15.05], "includesElement__en_allen": [15.05], "includesElement__metallic_radius_c12": [86.0], "includesElement__c6": [46.6], "includesElement__vdw_radius_dreiding": [389.83], "includesElement__vdw_radius_bondi": [170.0], "includesElement__vdw_radius_rt": [177.0], "formula": ["C2U1"], "spacegroup": ["225"], "thermalConductivity": [15.6025], "icsd": ["168167"], "band_gap": [0.0], "density": [11.13374], "density_atomic": [13.02781], "deprecated": [false], "efermi": [8.623606], "energy_above_hull": [0.6474366], "energy_per_atom": [-9.379922], "formation_energy_per_atom": [0.5363254], "homogeneous_poisson": [0.282], "is_gap_direct": [false], "is_magnetic": [false], "is_metal": [true], "is_stable": [false], "nelements": [2], "nsites": [3], "num_magnetic_sites": [0], "num_unique_magnetic_sites": [0], "theoretical": [true], "total_magnetization": [0.0019984], "total_magnetization_normalized_formula_units": [0.0019984], "total_magnetization_normalized_vol": [5.113166e-05], "uncorrected_energy_per_atom": [-9.379922], "universal_anisotropy": [0.925], "volume": [39.08342]}