{"includesElement": ["", "Si", "Ta"], "includesElement___series_id": [5, 8], "includesElement__abundance_crust": [282000.0, 2.0], "includesElement__atomic_number": [14, 73], "includesElement__atomic_radius": [110.0, 145.0], "includesElement__atomic_radius_rahm": [232.0, 258.0], "includesElement__atomic_volume": [12.1, 10.9], "includesElement__atomic_weight": [28.085, 180.9479], "includesElement__covalent_radius_cordero": [111.0, 170.0], "includesElement__covalent_radius_pyykko": [116.0, 146.0], "includesElement__covalent_radius_pyykko_double": [107.0, 126.0], "includesElement__covalent_radius_pyykko_triple": [102.0, 119.0], "includesElement__density": [2.3296, 16.4], "includesElement__dipole_polarizability": [37.3, 74.0], "includesElement__dipole_polarizability_unc": [0.7, 20.0], "includesElement__discovery_year": [1824, 1802], "includesElement__electron_affinity": [1.389521, 0.322], "includesElement__electronegativity_allred-rochow": [0.0003084126, 0.0001548133], "includesElement__electronegativity_cottrell-sutton": [0.1891451, 0.1503421], "includesElement__electronegativity_ghosh": [0.178503, 0.234581], "includesElement__electronegativity_gordy": [0.03577586, 0.02260274], "includesElement__electronegativity_mulliken": [4.770602, 3.935785], "includesElement__electronegativity_nagle": [0.4750986, 0.4072985], "includesElement__electronegativity_pauling": [1.9, 1.5], "includesElement__electronegativity_sanderson": [0.3468158, 0.8358832], "includesElement__en_ghosh": [0.178503, 0.234581], "includesElement__en_pauling": [1.9, 1.5], "includesElement__evaporation_heat": [383.0, 758.0], "includesElement__fusion_heat": [50.6, 24.7], "includesElement__glawe_number": [85, 52], "includesElement__group_id": [14, 5], "includesElement__heat_of_formation": [450.0, 782.0], "includesElement__is_radioactive": [false], "includesElement__lattice_constant": [5.43, 3.31], "includesElement__mendeleev_number": [88, 49], "includesElement__molar_heat_capacity": [19.99, 25.36], "includesElement__period": [3, 6], "includesElement__pettifor_number": [85, 53], "includesElement__specific_heat_capacity": [0.712, 0.14], "includesElement__vdw_radius": [210.0, 222.0], "includesElement__vdw_radius_alvarez": [219.0, 253.0], "includesElement__vdw_radius_mm3": [229.0, 243.0], "includesElement__vdw_radius_uff": [429.5, 317.0], "includesElement__abundance_sea": [2.2, 2e-06], "includesElement__c6_gb": [308.0, 887.0], "includesElement__covalent_radius_bragg": [117.0], "includesElement__electronegativity_allen": [11.33, 7.93], "includesElement__en_allen": [11.33, 7.93], "includesElement__metallic_radius": [117.0, 134.0], "includesElement__metallic_radius_c12": [138.0, 146.0], "includesElement__thermal_conductivity": [149.0, 57.5], "includesElement__vdw_radius_batsanov": [210.0, 220.0], "includesElement__c6": [305.0], "includesElement__vdw_radius_dreiding": [427.0], "includesElement__gas_basicity": [814.1], "includesElement__proton_affinity": [837.0], "includesElement__vdw_radius_bondi": [210.0], "includesElement__atomic_weight_uncertainty": [2e-05], "formula": ["Si2Ta4"], "spacegroup": ["140"], "thermalConductivity": [13.7945], "icsd": ["42526"], "band_gap": [0.0], "density": [13.45697], "density_atomic": [16.04073], "deprecated": [false], "efermi": [7.483437], "energy_above_hull": [0.0], "energy_per_atom": [-35.91335], "formation_energy_per_atom": [-0.5942046], "homogeneous_poisson": [0.284], "is_gap_direct": [false], "is_magnetic": [false], "is_metal": [true], "is_stable": [true], "nelements": [2], "nsites": [6], "num_magnetic_sites": [0], "num_unique_magnetic_sites": [0], "theoretical": [false], "total_magnetization": [0.0], "total_magnetization_normalized_formula_units": [0.0], "total_magnetization_normalized_vol": [0.0], "uncorrected_energy_per_atom": [-35.91335], "universal_anisotropy": [0.144], "volume": [96.24441], "equilibrium_reaction_energy_per_atom": [-0.001057487]}