{"includesElement": ["", "N", "Fe"], "includesElement___series_id": [1, 8], "includesElement__abundance_crust": [19.0, 56300.0], "includesElement__atomic_number": [7, 26], "includesElement__atomic_radius": [65.0, 140.0], "includesElement__atomic_radius_rahm": [179.0, 237.0], "includesElement__atomic_volume": [17.3, 7.1], "includesElement__atomic_weight": [14.007, 55.845], "includesElement__covalent_radius_cordero": [71.0, 142.0], "includesElement__covalent_radius_pyykko": [71.0, 116.0], "includesElement__covalent_radius_pyykko_double": [60.0, 109.0], "includesElement__covalent_radius_pyykko_triple": [54.0, 102.0], "includesElement__density": [0.001145, 7.87], "includesElement__dipole_polarizability": [7.4, 62.0], "includesElement__dipole_polarizability_unc": [0.2, 4.0], "includesElement__discovery_year": [1772], "includesElement__electron_affinity": [-1.4, 0.151], "includesElement__electronegativity_allred-rochow": [0.000773656, 0.0002786861], "includesElement__electronegativity_cottrell-sutton": [0.2343706, 0.1797987], "includesElement__electronegativity_ghosh": [0.26493, 0.1392532], "includesElement__electronegativity_gordy": [0.05492958, 0.03232759], "includesElement__electronegativity_mulliken": [6.567065, 4.026734], "includesElement__electronegativity_nagle": [0.8774979, 0.5053195], "includesElement__electronegativity_pauling": [3.04, 1.83], "includesElement__electronegativity_sanderson": [0.577482, 0.748727], "includesElement__en_ghosh": [0.26493, 0.1392532], "includesElement__en_pauling": [3.04, 1.83], "includesElement__glawe_number": [88, 71], "includesElement__group_id": [15, 8], "includesElement__heat_of_formation": [472.44, 415.5], "includesElement__is_radioactive": [false], "includesElement__lattice_constant": [4.039, 2.87], "includesElement__mendeleev_number": [93, 59], "includesElement__molar_heat_capacity": [29.124, 25.1], "includesElement__period": [2, 4], "includesElement__pettifor_number": [100, 61], "includesElement__specific_heat_capacity": [1.04, 0.449], "includesElement__vdw_radius": [155.0, 204.0], "includesElement__vdw_radius_alvarez": [166.0, 244.0], "includesElement__vdw_radius_mm3": [193.0, 223.0], "includesElement__vdw_radius_uff": [366.0, 291.2], "includesElement__abundance_sea": [0.5, 0.002], "includesElement__c6_gb": [25.7, 548.0], "includesElement__covalent_radius_bragg": [65.0, 140.0], "includesElement__electronegativity_allen": [18.13, 10.64], "includesElement__en_allen": [18.13, 10.64], "includesElement__metallic_radius_c12": [53.0, 126.0], "includesElement__thermal_conductivity": [0.026, 80.4], "includesElement__vdw_radius_batsanov": [160.0, 205.0], "includesElement__c6": [24.2, 482.0], "includesElement__vdw_radius_dreiding": [366.21], "includesElement__gas_basicity": [318.7, 731.1], "includesElement__proton_affinity": [342.2, 754.0], "includesElement__vdw_radius_bondi": [155.0], "includesElement__vdw_radius_rt": [164.0], "includesElement__evaporation_heat": [340.0], "includesElement__fusion_heat": [13.8], "includesElement__atomic_weight_uncertainty": [0.002], "includesElement__metallic_radius": [117.0], "formula": ["Fe6N2"], "spacegroup": ["20"], "thermalConductivity": [2.61952], "icsd": ["24650"], "band_gap": [0.0], "density": [7.38762], "density_atomic": [10.20143], "deprecated": [false], "efermi": [6.237178], "energy_above_hull": [0.0], "energy_per_atom": [-8.594864], "formation_energy_per_atom": [-0.1577791], "homogeneous_poisson": [0.213], "is_gap_direct": [false], "is_magnetic": [true], "is_metal": [true], "is_stable": [true], "nelements": [2], "nsites": [8], "num_magnetic_sites": [6], "num_unique_magnetic_sites": [2], "theoretical": [false], "total_magnetization": [14.62861], "total_magnetization_normalized_formula_units": [7.314303], "total_magnetization_normalized_vol": [0.179247], "uncorrected_energy_per_atom": [-13.10196], "universal_anisotropy": [-4.237], "volume": [81.61143], "equilibrium_reaction_energy_per_atom": [-0.0009063687]}