{"includesElement": ["", "Cl", "Rb"], "includesElement___series_id": [6, 3], "includesElement__abundance_crust": [145.0, 90.0], "includesElement__atomic_number": [17, 37], "includesElement__atomic_radius": [100.0, 235.0], "includesElement__atomic_radius_rahm": [206.0, 240.0], "includesElement__atomic_volume": [18.7, 55.9], "includesElement__atomic_weight": [35.45, 85.4678], "includesElement__covalent_radius_cordero": [102.0, 220.0], "includesElement__covalent_radius_pyykko": [99.0, 210.0], "includesElement__covalent_radius_pyykko_double": [95.0, 202.0], "includesElement__covalent_radius_pyykko_triple": [93.0], "includesElement__density": [0.002898, 1.53], "includesElement__dipole_polarizability": [14.6, 319.8], "includesElement__dipole_polarizability_unc": [0.1, 0.3], "includesElement__discovery_year": [1774, 1861], "includesElement__electron_affinity": [3.612725, 0.48592], "includesElement__electronegativity_allred-rochow": [0.0006223855, 4.988662e-05], "includesElement__electronegativity_cottrell-sutton": [0.248226, 0.1023533], "includesElement__electronegativity_ghosh": [0.263803, 0.104686], "includesElement__electronegativity_gordy": [0.06161616, 0.01047619], "includesElement__electronegativity_mulliken": [8.290178, 2.331524], "includesElement__electronegativity_nagle": [0.7826755, 0.1462314], "includesElement__electronegativity_pauling": [3.16, 0.82], "includesElement__electronegativity_sanderson": [0.8123773, 0.1764136], "includesElement__en_ghosh": [0.263803, 0.104686], "includesElement__en_pauling": [3.16, 0.82], "includesElement__evaporation_heat": [20.41, 75.8], "includesElement__fusion_heat": [6.41, 2.2], "includesElement__glawe_number": [101, 9], "includesElement__group_id": [17, 1], "includesElement__heat_of_formation": [121.302, 80.9], "includesElement__is_radioactive": [false], "includesElement__lattice_constant": [6.24, 5.59], "includesElement__mendeleev_number": [107, 4], "includesElement__molar_heat_capacity": [33.949, 31.06], "includesElement__period": [3, 5], "includesElement__pettifor_number": [99, 9], "includesElement__specific_heat_capacity": [0.479, 0.363], "includesElement__vdw_radius": [175.0, 303.0], "includesElement__vdw_radius_alvarez": [182.0, 321.0], "includesElement__vdw_radius_mm3": [207.0, 325.0], "includesElement__vdw_radius_uff": [394.7, 411.4], "includesElement__abundance_sea": [19400.0, 0.12], "includesElement__c6_gb": [97.1, 4660.0], "includesElement__covalent_radius_bragg": [105.0, 225.0], "includesElement__electronegativity_allen": [16.97, 4.177], "includesElement__en_allen": [16.97, 4.177], "includesElement__metallic_radius_c12": [91.0, 248.0], "includesElement__thermal_conductivity": [0.009, 58.2], "includesElement__vdw_radius_batsanov": [180.0, 290.0], "includesElement__c6": [94.6, 4769.0], "includesElement__vdw_radius_dreiding": [395.03], "includesElement__gas_basicity": [490.1], "includesElement__proton_affinity": [513.6], "includesElement__vdw_radius_bondi": [175.0], "includesElement__vdw_radius_rt": [176.0], "includesElement__atomic_weight_uncertainty": [0.0003], "includesElement__metallic_radius": [216.0], "includesElement__vdw_radius_truhlar": [303.0], "formula": ["Cl1Rb1", "ClRb"], "mp_id": ["mp-23295"], "spacegroup": ["225"], "thermalConductivity": [0.837648, 2.518259, 2.582862], "icsd": ["162798"], "band_gap": [4.8388], "density": [2.771693], "density_atomic": [36.22222], "deprecated": [false], "efermi": [-1.817962], "energy_above_hull": [0.0], "energy_per_atom": [-3.659408], "formation_energy_per_atom": [-2.244873], "is_gap_direct": [true], "is_magnetic": [false], "is_metal": [false], "is_stable": [true], "nelements": [2], "nsites": [2], "num_magnetic_sites": [0], "num_unique_magnetic_sites": [0], "theoretical": [false], "total_magnetization": [9.7e-05], "total_magnetization_normalized_formula_units": [9.7e-05], "total_magnetization_normalized_vol": [1.338957e-06], "uncorrected_energy_per_atom": [-12.20164], "volume": [72.44444], "cbm": [2.7727], "e_electronic": [2.28105], "e_ionic": [3.37088], "e_total": [5.65193], "equilibrium_reaction_energy_per_atom": [-2.244873], "n": [1.510315], "vbm": [-2.0661]}