{"includesElement": ["", "Pb", "Lu"], "includesElement___series_id": [7, 8], "includesElement__abundance_crust": [14.0, 0.8], "includesElement__atomic_number": [82, 71], "includesElement__atomic_radius": [180.0, 175.0], "includesElement__atomic_radius_rahm": [249.0, 270.0], "includesElement__atomic_volume": [18.3, 17.8], "includesElement__atomic_weight": [207.2, 174.9668], "includesElement__covalent_radius_cordero": [146.0, 187.0], "includesElement__covalent_radius_pyykko": [144.0, 162.0], "includesElement__covalent_radius_pyykko_double": [135.0, 131.0], "includesElement__covalent_radius_pyykko_triple": [137.0, 131.0], "includesElement__density": [11.3, 9.84], "includesElement__dipole_polarizability": [47.0, 137.0], "includesElement__dipole_polarizability_unc": [3.0, 7.0], "includesElement__electron_affinity": [0.3567432, 0.34], "includesElement__electronegativity_allred-rochow": [0.000272473, 0.0001143118], "includesElement__electronegativity_cottrell-sutton": [0.1980811, 0.1360828], "includesElement__electronegativity_ghosh": [0.177911, 0.22565], "includesElement__electronegativity_gordy": [0.03923611, 0.01851852], "includesElement__electronegativity_mulliken": [3.886711, 2.882935], "includesElement__electronegativity_nagle": [0.4398663, 0.4987805], "includesElement__electronegativity_pauling": [1.8, 1.0], "includesElement__electronegativity_sanderson": [0.9313226, 0.6027398], "includesElement__en_ghosh": [0.177911, 0.22565], "includesElement__en_pauling": [1.8, 1.0], "includesElement__evaporation_heat": [177.8, 414.0], "includesElement__fusion_heat": [4.77], "includesElement__glawe_number": [82, 19], "includesElement__group_id": [14], "includesElement__heat_of_formation": [195.2, 427.6], "includesElement__is_radioactive": [false], "includesElement__lattice_constant": [4.95, 3.51], "includesElement__mendeleev_number": [91, 41], "includesElement__molar_heat_capacity": [26.84, 26.86], "includesElement__period": [6], "includesElement__pettifor_number": [82, 21], "includesElement__specific_heat_capacity": [0.13, 0.154], "includesElement__vdw_radius": [202.0, 224.0], "includesElement__vdw_radius_alvarez": [260.0, 274.0], "includesElement__vdw_radius_mm3": [274.0, 265.0], "includesElement__vdw_radius_uff": [429.7, 364.0], "includesElement__abundance_sea": [3e-05, 1.5e-07], "includesElement__atomic_weight_uncertainty": [0.1, 0.0001], "includesElement__c6_gb": [534.0, 2020.0], "includesElement__electronegativity_allen": [10.97, 6.455], "includesElement__en_allen": [10.97, 6.455], "includesElement__metallic_radius": [150.0], "includesElement__metallic_radius_c12": [170.0], "includesElement__thermal_conductivity": [35.3], "includesElement__vdw_radius_batsanov": [230.0], "includesElement__vdw_radius_bondi": [202.0], "includesElement__discovery_year": [1907], "includesElement__gas_basicity": [970.6], "includesElement__proton_affinity": [992.0], "formula": ["Lu1Pb2"], "spacegroup": ["139"], "thermalConductivity": [0.957325], "icsd": ["104811"], "band_gap": [0.0], "density": [11.65246], "density_atomic": [27.996], "deprecated": [false], "efermi": [6.217105], "energy_above_hull": [0.1237775], "energy_per_atom": [-4.124789], "formation_energy_per_atom": [-0.142462], "homogeneous_poisson": [0.596], "is_gap_direct": [false], "is_magnetic": [false], "is_metal": [true], "is_stable": [false], "nelements": [2], "nsites": [3], "num_magnetic_sites": [0], "num_unique_magnetic_sites": [0], "theoretical": [false], "total_magnetization": [0.0012381], "total_magnetization_normalized_formula_units": [0.0012381], "total_magnetization_normalized_vol": [1.474139e-05], "uncorrected_energy_per_atom": [-50.42366], "universal_anisotropy": [-7.088], "volume": [83.988]}