{"includesElement": ["", "Sn", "Pt"], "includesElement___series_id": [7, 8], "includesElement__abundance_crust": [2.3, 0.005], "includesElement__atomic_number": [50, 78], "includesElement__atomic_radius": [145.0, 135.0], "includesElement__atomic_radius_rahm": [248.0, 230.0], "includesElement__atomic_volume": [16.3, 9.1], "includesElement__atomic_weight": [118.71, 195.084], "includesElement__covalent_radius_cordero": [139.0, 136.0], "includesElement__covalent_radius_pyykko": [140.0, 123.0], "includesElement__covalent_radius_pyykko_double": [130.0, 112.0], "includesElement__covalent_radius_pyykko_triple": [132.0, 110.0], "includesElement__density": [7.287, 21.5], "includesElement__dipole_polarizability": [53.0, 48.0], "includesElement__dipole_polarizability_unc": [6.0, 4.0], "includesElement__electron_affinity": [1.112067, 2.128], "includesElement__electronegativity_allred-rochow": [0.0002882653, 0.0002346487], "includesElement__electronegativity_cottrell-sutton": [0.2008909, 0.1698876], "includesElement__electronegativity_ghosh": [0.178052, 0.25691], "includesElement__electronegativity_gordy": [0.04035714, 0.02886179], "includesElement__electronegativity_mulliken": [4.227992, 5.543415], "includesElement__electronegativity_nagle": [0.4225986, 0.5928156], "includesElement__electronegativity_pauling": [1.96, 2.2], "includesElement__electronegativity_sanderson": [0.7622797, 1.45101], "includesElement__en_ghosh": [0.178052, 0.25691], "includesElement__en_pauling": [1.96, 2.2], "includesElement__evaporation_heat": [296.0, 470.0], "includesElement__fusion_heat": [7.07, 21.76], "includesElement__glawe_number": [83, 64], "includesElement__group_id": [14, 10], "includesElement__heat_of_formation": [301.2, 565.7], "includesElement__is_radioactive": [false], "includesElement__lattice_constant": [5.82, 3.92], "includesElement__mendeleev_number": [90, 69], "includesElement__molar_heat_capacity": [26.99, 25.86], "includesElement__period": [5, 6], "includesElement__pettifor_number": [83, 68], "includesElement__specific_heat_capacity": [0.227, 0.133], "includesElement__vdw_radius": [217.0, 213.0], "includesElement__vdw_radius_alvarez": [242.0, 229.0], "includesElement__vdw_radius_mm3": [259.0, 239.0], "includesElement__vdw_radius_uff": [439.2, 275.4], "includesElement__abundance_sea": [4e-06], "includesElement__atomic_weight_uncertainty": [0.007, 0.009], "includesElement__c6_gb": [715.0, 470.0], "includesElement__covalent_radius_bragg": [140.0], "includesElement__electronegativity_allen": [10.79, 10.16], "includesElement__en_allen": [10.79, 10.16], "includesElement__metallic_radius": [142.0, 130.0], "includesElement__metallic_radius_c12": [163.0, 139.0], "includesElement__thermal_conductivity": [66.8, 71.6], "includesElement__vdw_radius_batsanov": [225.0, 205.0], "includesElement__c6": [659.0], "includesElement__vdw_radius_dreiding": [447.0], "includesElement__vdw_radius_bondi": [217.0], "includesElement__discovery_year": [1735], "formula": ["Pt3Sn1"], "spacegroup": ["221"], "thermalConductivity": [2.47312], "icsd": ["105795"], "band_gap": [0.0], "density": [17.86966], "density_atomic": [16.35392], "deprecated": [false], "efermi": [8.815756], "energy_above_hull": [0.0], "energy_per_atom": [-45.20404], "formation_energy_per_atom": [-0.4017054], "homogeneous_poisson": [0.369], "is_gap_direct": [false], "is_magnetic": [false], "is_metal": [true], "is_stable": [true], "nelements": [2], "nsites": [4], "num_magnetic_sites": [0], "num_unique_magnetic_sites": [0], "theoretical": [false], "total_magnetization": [1.6e-06], "total_magnetization_normalized_formula_units": [1.6e-06], "total_magnetization_normalized_vol": [2.445896e-08], "uncorrected_energy_per_atom": [-45.20404], "universal_anisotropy": [0.255], "volume": [65.41569], "equilibrium_reaction_energy_per_atom": [-0.092811]}