{"includesElement": ["", "Li", "Ag"], "includesElement___series_id": [3, 8], "includesElement__abundance_crust": [20.0, 0.075], "includesElement__atomic_number": [3, 47], "includesElement__atomic_radius": [145.0, 160.0], "includesElement__atomic_radius_rahm": [220.0, 225.0], "includesElement__atomic_volume": [13.1, 10.3], "includesElement__atomic_weight": [6.94, 107.8682], "includesElement__covalent_radius_cordero": [128.0, 145.0], "includesElement__covalent_radius_pyykko": [133.0, 128.0], "includesElement__covalent_radius_pyykko_double": [124.0, 139.0], "includesElement__density": [0.534, 10.5], "includesElement__dipole_polarizability": [164.1125, 55.0], "includesElement__dipole_polarizability_unc": [0.0005, 8.0], "includesElement__discovery_year": [1817], "includesElement__electron_affinity": [0.618049, 1.302], "includesElement__electronegativity_allred-rochow": [7.3492e-05, 0.0002258301], "includesElement__electronegativity_cottrell-sutton": [0.09886575, 0.1700184], "includesElement__electronegativity_ghosh": [0.105093, 0.1472165], "includesElement__electronegativity_gordy": [0.009774436, 0.02890625], "includesElement__electronegativity_mulliken": [3.004882, 4.439117], "includesElement__electronegativity_nagle": [0.1826499, 0.5848035], "includesElement__electronegativity_pauling": [0.98, 1.93], "includesElement__electronegativity_sanderson": [0.04886793, 0.9437955], "includesElement__en_ghosh": [0.105093, 0.1472165], "includesElement__en_pauling": [0.98, 1.93], "includesElement__evaporation_heat": [148.0, 254.1], "includesElement__fusion_heat": [2.89, 11.95], "includesElement__glawe_number": [12, 67], "includesElement__group_id": [1, 11], "includesElement__heat_of_formation": [159.3, 284.9], "includesElement__is_radioactive": [false], "includesElement__lattice_constant": [3.49, 4.09], "includesElement__mendeleev_number": [1, 72], "includesElement__molar_heat_capacity": [24.86, 25.35], "includesElement__period": [2, 5], "includesElement__pettifor_number": [12, 71], "includesElement__specific_heat_capacity": [3.582, 0.235], "includesElement__vdw_radius": [182.0, 211.0], "includesElement__vdw_radius_alvarez": [212.0, 253.0], "includesElement__vdw_radius_mm3": [255.0, 243.0], "includesElement__vdw_radius_uff": [245.1, 314.8], "includesElement__abundance_sea": [0.18, 4e-05], "includesElement__c6_gb": [1410.0, 341.0], "includesElement__covalent_radius_bragg": [150.0, 177.0], "includesElement__electronegativity_allen": [5.392, 11.05], "includesElement__en_allen": [5.392, 11.05], "includesElement__metallic_radius": [123.0, 134.0], "includesElement__metallic_radius_c12": [155.0, 144.0], "includesElement__thermal_conductivity": [84.8, 429.0], "includesElement__vdw_radius_batsanov": [220.0, 210.0], "includesElement__c6": [1392.0], "includesElement__vdw_radius_bondi": [181.0], "includesElement__covalent_radius_pyykko_triple": [137.0], "includesElement__atomic_weight_uncertainty": [0.0002], "formula": ["Ag2Li2"], "spacegroup": ["141"], "thermalConductivity": [0.604212], "icsd": ["247145"], "band_gap": [0.0], "density": [5.810634], "density_atomic": [16.40485], "deprecated": [false], "efermi": [2.277716], "energy_above_hull": [0.01427476], "energy_per_atom": [-12.03747], "formation_energy_per_atom": [-0.1661773], "homogeneous_poisson": [0.353], "is_gap_direct": [false], "is_magnetic": [false], "is_metal": [true], "is_stable": [false], "nelements": [2], "nsites": [4], "num_magnetic_sites": [0], "num_unique_magnetic_sites": [0], "theoretical": [false], "total_magnetization": [3.5e-06], "total_magnetization_normalized_formula_units": [1.75e-06], "total_magnetization_normalized_vol": [5.333788e-08], "uncorrected_energy_per_atom": [-12.03747], "universal_anisotropy": [3.5], "volume": [65.6194]}