{"includesElement": ["", "O", "Th"], "includesElement___series_id": [1, 10], "includesElement__abundance_crust": [461000.0, 9.6], "includesElement__atomic_number": [8, 90], "includesElement__atomic_radius": [60.0, 180.0], "includesElement__atomic_radius_rahm": [171.0, 288.0], "includesElement__atomic_volume": [14.0, 19.8], "includesElement__atomic_weight": [15.999, 232.0377], "includesElement__covalent_radius_cordero": [66.0, 206.0], "includesElement__covalent_radius_pyykko": [63.0, 175.0], "includesElement__covalent_radius_pyykko_double": [57.0, 143.0], "includesElement__covalent_radius_pyykko_triple": [53.0, 136.0], "includesElement__density": [0.001308, 11.7], "includesElement__dipole_polarizability": [5.3, 217.0], "includesElement__dipole_polarizability_unc": [0.2, 54.0], "includesElement__discovery_year": [1774, 1828], "includesElement__electron_affinity": [1.461113], "includesElement__electronegativity_allred-rochow": [0.001146384, 0.0001028571], "includesElement__electronegativity_cottrell-sutton": [0.2687419, 0.1341641], "includesElement__electronegativity_ghosh": [0.304575, 0.10277], "includesElement__electronegativity_gordy": [0.07222222, 0.018], "includesElement__electronegativity_mulliken": [7.539584, 3.15335], "includesElement__electronegativity_nagle": [1.042218, 0.2641598], "includesElement__electronegativity_pauling": [3.44, 1.3], "includesElement__electronegativity_sanderson": [0.9416494, 0.5557019], "includesElement__en_ghosh": [0.304575, 0.10277], "includesElement__en_pauling": [3.44, 1.3], "includesElement__glawe_number": [97, 34], "includesElement__group_id": [16], "includesElement__heat_of_formation": [249.229, 602.0], "includesElement__is_radioactive": [false, true], "includesElement__lattice_constant": [6.83, 5.08], "includesElement__mendeleev_number": [99, 16], "includesElement__molar_heat_capacity": [29.378, 27.32], "includesElement__period": [2, 7], "includesElement__pettifor_number": [101, 47], "includesElement__specific_heat_capacity": [0.918, 0.118], "includesElement__vdw_radius": [152.0, 245.0], "includesElement__vdw_radius_alvarez": [150.0, 293.0], "includesElement__vdw_radius_mm3": [182.0, 274.0], "includesElement__vdw_radius_uff": [350.0, 339.6], "includesElement__abundance_sea": [857000.0, 1e-06], "includesElement__c6_gb": [16.7], "includesElement__covalent_radius_bragg": [65.0], "includesElement__electronegativity_allen": [21.36], "includesElement__en_allen": [21.36], "includesElement__thermal_conductivity": [0.027], "includesElement__vdw_radius_batsanov": [155.0, 240.0], "includesElement__c6": [15.6], "includesElement__vdw_radius_dreiding": [340.46], "includesElement__gas_basicity": [459.6], "includesElement__proton_affinity": [485.2], "includesElement__vdw_radius_bondi": [152.0], "includesElement__vdw_radius_rt": [158.0], "includesElement__evaporation_heat": [513.7], "includesElement__fusion_heat": [16.11], "includesElement__atomic_weight_uncertainty": [0.0004], "formula": ["O2Th1"], "spacegroup": ["225"], "thermalConductivity": [15.0171], "icsd": ["105550"], "band_gap": [4.4187], "density": [9.981284], "density_atomic": [14.64219], "deprecated": [false], "efermi": [4.601258], "energy_above_hull": [0.0], "energy_per_atom": [-32.70574], "formation_energy_per_atom": [-4.240219], "homogeneous_poisson": [0.291], "is_gap_direct": [false], "is_magnetic": [false], "is_metal": [false], "is_stable": [true], "nelements": [2], "nsites": [3], "num_magnetic_sites": [0], "num_unique_magnetic_sites": [0], "theoretical": [false], "total_magnetization": [0.0], "total_magnetization_normalized_formula_units": [0.0], "total_magnetization_normalized_vol": [0.0], "uncorrected_energy_per_atom": [-32.70574], "universal_anisotropy": [0.325], "volume": [43.92656], "cbm": [8.9753], "equilibrium_reaction_energy_per_atom": [-4.240219], "vbm": [4.5566]}