{"includesElement": ["", "Ca", "O", "Mn"], "includesElement___series_id": [4, 1, 8], "includesElement__abundance_crust": [41500.0, 461000.0, 950.0], "includesElement__atomic_number": [20, 8, 25], "includesElement__atomic_radius": [180.0, 60.0, 140.0], "includesElement__atomic_radius_rahm": [270.0, 171.0, 242.0], "includesElement__atomic_volume": [29.9, 14.0, 7.39], "includesElement__atomic_weight": [40.078, 15.999, 54.93804], "includesElement__covalent_radius_cordero": [176.0, 66.0, 150.0], "includesElement__covalent_radius_pyykko": [171.0, 63.0, 119.0], "includesElement__covalent_radius_pyykko_double": [147.0, 57.0, 105.0], "includesElement__covalent_radius_pyykko_triple": [133.0, 53.0, 103.0], "includesElement__density": [1.54, 0.001308, 7.3], "includesElement__dipole_polarizability": [160.8, 5.3, 68.0], "includesElement__dipole_polarizability_unc": [4.0, 0.2, 9.0], "includesElement__discovery_year": [1808, 1774], "includesElement__electron_affinity": [0.02455, 1.461113], "includesElement__electronegativity_allred-rochow": [9.746589e-05, 0.001146384, 0.0002542193], "includesElement__electronegativity_cottrell-sutton": [0.1290994, 0.2687419, 0.1739313], "includesElement__electronegativity_ghosh": [0.1154119, 0.304575, 0.1352844], "includesElement__electronegativity_gordy": [0.01666667, 0.07222222, 0.0302521], "includesElement__electronegativity_mulliken": [3.068853, 7.539584, 3.717009], "includesElement__electronegativity_nagle": [0.2316939, 1.042218, 0.4686656], "includesElement__electronegativity_pauling": [1.0, 3.44, 1.55], "includesElement__electronegativity_sanderson": [0.1901577, 0.9416494, 0.6707264], "includesElement__en_ghosh": [0.1154119, 0.304575, 0.1352844], "includesElement__en_pauling": [1.0, 3.44, 1.55], "includesElement__evaporation_heat": [153.6, 221.0], "includesElement__fusion_heat": [9.2, 13.4], "includesElement__glawe_number": [16, 97, 72], "includesElement__group_id": [2, 16, 7], "includesElement__heat_of_formation": [177.8, 249.229, 283.3], "includesElement__is_radioactive": [false], "includesElement__lattice_constant": [5.58, 6.83, 8.89], "includesElement__mendeleev_number": [7, 99, 55], "includesElement__molar_heat_capacity": [25.929, 29.378, 26.32], "includesElement__period": [4, 2], "includesElement__pettifor_number": [16, 101, 60], "includesElement__specific_heat_capacity": [0.647, 0.918, 0.479], "includesElement__vdw_radius": [231.0, 152.0, 205.0], "includesElement__vdw_radius_alvarez": [262.0, 150.0, 245.0], "includesElement__vdw_radius_mm3": [281.0, 182.0, 224.0], "includesElement__vdw_radius_uff": [339.9, 350.0, 296.1], "includesElement__abundance_sea": [412.0, 857000.0, 0.0002], "includesElement__atomic_weight_uncertainty": [0.004, 3e-06], "includesElement__c6_gb": [2230.0, 16.7, 635.0], "includesElement__covalent_radius_bragg": [170.0, 65.0, 147.0], "includesElement__electronegativity_allen": [6.113, 21.36, 10.34], "includesElement__en_allen": [6.113, 21.36, 10.34], "includesElement__metallic_radius": [174.0, 118.0], "includesElement__metallic_radius_c12": [197.0, 127.0], "includesElement__vdw_radius_batsanov": [240.0, 155.0, 205.0], "includesElement__c6": [2163.0, 15.6, 552.0], "includesElement__vdw_radius_truhlar": [231.0], "includesElement__thermal_conductivity": [0.027], "includesElement__vdw_radius_dreiding": [340.46], "includesElement__gas_basicity": [459.6, 774.4], "includesElement__proton_affinity": [485.2, 797.3], "includesElement__vdw_radius_bondi": [152.0], "includesElement__vdw_radius_rt": [158.0], "includesElement__is_monoisotopic": [true], "formula": ["Ca1Mn1O3"], "spacegroup": ["221"], "thermalConductivity": [7.54051], "icsd": ["168902"], "band_gap": [0.0], "density": [4.322046], "density_atomic": [10.98927], "deprecated": [false], "efermi": [3.454984], "energy_above_hull": [0.1165496], "energy_per_atom": [-7.621263], "formation_energy_per_atom": [-2.416382], "is_gap_direct": [false], "is_magnetic": [true], "is_metal": [true], "is_stable": [false], "nelements": [3], "nsites": [5], "num_magnetic_sites": [1], "num_unique_magnetic_sites": [1], "theoretical": [true], "total_magnetization": [3.153875], "total_magnetization_normalized_formula_units": [3.153875], "total_magnetization_normalized_vol": [0.05739915], "uncorrected_energy_per_atom": [-6.875463], "volume": [54.94637]}