{"includesElement": ["", "Zn", "V"], "includesElement___series_id": [8], "includesElement__abundance_crust": [70.0, 120.0], "includesElement__atomic_number": [30, 23], "includesElement__atomic_radius": [135.0], "includesElement__atomic_radius_rahm": [222.0, 252.0], "includesElement__atomic_volume": [9.2, 8.35], "includesElement__atomic_weight": [65.38, 50.9415], "includesElement__covalent_radius_cordero": [122.0, 153.0], "includesElement__covalent_radius_pyykko": [118.0, 134.0], "includesElement__covalent_radius_pyykko_double": [120.0, 112.0], "includesElement__density": [7.134, 6.0], "includesElement__dipole_polarizability": [38.67, 87.0], "includesElement__dipole_polarizability_unc": [0.3, 10.0], "includesElement__electronegativity_allred-rochow": [0.0003124102, 0.0001837826], "includesElement__electronegativity_cottrell-sutton": [0.1920011, 0.1569295], "includesElement__electronegativity_ghosh": [0.1551518, 0.1273344], "includesElement__electronegativity_gordy": [0.03686441, 0.02462687], "includesElement__electronegativity_mulliken": [4.6971, 3.635594], "includesElement__electronegativity_nagle": [0.6770213, 0.3859078], "includesElement__electronegativity_pauling": [1.65, 1.63], "includesElement__electronegativity_sanderson": [0.8100877, 0.4388898], "includesElement__en_ghosh": [0.1551518, 0.1273344], "includesElement__en_pauling": [1.65, 1.63], "includesElement__evaporation_heat": [114.8, 460.0], "includesElement__fusion_heat": [7.28, 17.5], "includesElement__glawe_number": [74, 54], "includesElement__group_id": [12, 5], "includesElement__heat_of_formation": [130.4, 515.5], "includesElement__is_radioactive": [false], "includesElement__lattice_constant": [2.66, 3.02], "includesElement__mendeleev_number": [77, 47], "includesElement__molar_heat_capacity": [25.39, 24.89], "includesElement__period": [4], "includesElement__pettifor_number": [76, 54], "includesElement__specific_heat_capacity": [0.388, 0.489], "includesElement__vdw_radius": [201.0, 207.0], "includesElement__vdw_radius_alvarez": [239.0, 242.0], "includesElement__vdw_radius_mm3": [229.0], "includesElement__vdw_radius_uff": [276.3, 314.4], "includesElement__abundance_sea": [0.0049, 0.0025], "includesElement__atomic_weight_uncertainty": [0.02, 0.0001], "includesElement__c6_gb": [276.0, 955.0], "includesElement__covalent_radius_bragg": [132.0], "includesElement__electronegativity_allen": [9.395, 9.063], "includesElement__en_allen": [9.395, 9.063], "includesElement__metallic_radius": [121.0, 122.0], "includesElement__metallic_radius_c12": [134.0], "includesElement__thermal_conductivity": [116.0, 30.7], "includesElement__vdw_radius_batsanov": [210.0, 205.0], "includesElement__c6": [284.0, 832.0], "includesElement__gas_basicity": [586.0, 836.8], "includesElement__proton_affinity": [608.6, 859.4], "includesElement__covalent_radius_pyykko_triple": [106.0], "includesElement__discovery_year": [1830], "includesElement__electron_affinity": [0.525], "formula": ["V1Zn3"], "spacegroup": ["221"], "thermalConductivity": [6.06174], "icsd": ["106240"], "band_gap": [0.0], "density": [7.56622], "density_atomic": [13.56136], "deprecated": [false], "efermi": [3.718012], "energy_above_hull": [0.0], "energy_per_atom": [-10.2792], "formation_energy_per_atom": [-0.0738527], "homogeneous_poisson": [0.266], "is_gap_direct": [false], "is_magnetic": [false], "is_metal": [true], "is_stable": [true], "nelements": [2], "nsites": [4], "num_magnetic_sites": [0], "num_unique_magnetic_sites": [0], "theoretical": [false], "total_magnetization": [0.0182201], "total_magnetization_normalized_formula_units": [0.0182201], "total_magnetization_normalized_vol": [0.0003358826], "uncorrected_energy_per_atom": [-10.2792], "universal_anisotropy": [0.636], "volume": [54.24544], "equilibrium_reaction_energy_per_atom": [-0.03267215]}