{"includesElement": ["", "N", "Hf"], "includesElement___series_id": [1, 8], "includesElement__abundance_crust": [19.0, 3.0], "includesElement__atomic_number": [7, 72], "includesElement__atomic_radius": [65.0, 155.0], "includesElement__atomic_radius_rahm": [179.0, 264.0], "includesElement__atomic_volume": [17.3, 13.6], "includesElement__atomic_weight": [14.007, 178.49], "includesElement__covalent_radius_cordero": [71.0, 175.0], "includesElement__covalent_radius_pyykko": [71.0, 152.0], "includesElement__covalent_radius_pyykko_double": [60.0, 128.0], "includesElement__covalent_radius_pyykko_triple": [54.0, 122.0], "includesElement__density": [0.001145, 13.3], "includesElement__dipole_polarizability": [7.4, 103.0], "includesElement__dipole_polarizability_unc": [0.2, 6.0], "includesElement__discovery_year": [1772, 1923], "includesElement__electron_affinity": [-1.4, 0.014], "includesElement__electronegativity_allred-rochow": [0.000773656, 0.00013634], "includesElement__electronegativity_cottrell-sutton": [0.2343706, 0.1439572], "includesElement__electronegativity_ghosh": [0.26493, 0.229987], "includesElement__electronegativity_gordy": [0.05492958, 0.02072368], "includesElement__electronegativity_mulliken": [6.567065, 3.419535], "includesElement__electronegativity_nagle": [0.8774979, 0.3386421], "includesElement__electronegativity_pauling": [3.04, 1.3], "includesElement__electronegativity_sanderson": [0.577482, 0.7352125], "includesElement__en_ghosh": [0.26493, 0.229987], "includesElement__en_pauling": [3.04, 1.3], "includesElement__glawe_number": [88, 50], "includesElement__group_id": [15, 4], "includesElement__heat_of_formation": [472.44, 618.4], "includesElement__is_radioactive": [false], "includesElement__lattice_constant": [4.039, 3.2], "includesElement__mendeleev_number": [93, 45], "includesElement__molar_heat_capacity": [29.124, 25.73], "includesElement__period": [2, 6], "includesElement__pettifor_number": [100, 50], "includesElement__specific_heat_capacity": [1.04, 0.144], "includesElement__vdw_radius": [155.0, 223.0], "includesElement__vdw_radius_alvarez": [166.0, 263.0], "includesElement__vdw_radius_mm3": [193.0, 253.0], "includesElement__vdw_radius_uff": [366.0, 314.1], "includesElement__abundance_sea": [0.5, 7e-06], "includesElement__c6_gb": [25.7, 1040.0], "includesElement__covalent_radius_bragg": [65.0], "includesElement__electronegativity_allen": [18.13, 6.83], "includesElement__en_allen": [18.13, 6.83], "includesElement__metallic_radius_c12": [53.0, 159.0], "includesElement__thermal_conductivity": [0.026, 23.0], "includesElement__vdw_radius_batsanov": [160.0, 225.0], "includesElement__c6": [24.2], "includesElement__vdw_radius_dreiding": [366.21], "includesElement__gas_basicity": [318.7], "includesElement__proton_affinity": [342.2], "includesElement__vdw_radius_bondi": [155.0], "includesElement__vdw_radius_rt": [164.0], "includesElement__evaporation_heat": [575.0], "includesElement__fusion_heat": [25.1], "includesElement__atomic_weight_uncertainty": [0.02], "includesElement__metallic_radius": [144.0], "formula": ["Hf2N4"], "spacegroup": ["194"], "thermalConductivity": [6.7576], "icsd": ["290428"], "band_gap": [0.5762], "density": [9.814458], "density_atomic": [11.64632], "deprecated": [false], "efermi": [5.60392], "energy_above_hull": [0.4568621], "energy_per_atom": [-22.21474], "formation_energy_per_atom": [-1.07843], "is_gap_direct": [false], "is_magnetic": [false], "is_metal": [false], "is_stable": [false], "nelements": [2], "nsites": [6], "num_magnetic_sites": [0], "num_unique_magnetic_sites": [0], "theoretical": [true], "total_magnetization": [2.8e-05], "total_magnetization_normalized_formula_units": [1.4e-05], "total_magnetization_normalized_vol": [4.006988e-07], "uncorrected_energy_per_atom": [-9.633836], "volume": [69.87792], "cbm": [6.0719], "vbm": [5.4957]}