{"includesElement": ["", "Bi", "Al"], "includesElement___series_id": [7], "includesElement__abundance_crust": [0.0085, 82300.0], "includesElement__atomic_number": [83, 13], "includesElement__atomic_radius": [160.0, 125.0], "includesElement__atomic_radius_rahm": [250.0, 239.0], "includesElement__atomic_volume": [21.3, 10.0], "includesElement__atomic_weight": [208.9804, 26.98154], "includesElement__covalent_radius_cordero": [148.0, 121.0], "includesElement__covalent_radius_pyykko": [151.0, 126.0], "includesElement__covalent_radius_pyykko_double": [141.0, 113.0], "includesElement__covalent_radius_pyykko_triple": [135.0, 111.0], "includesElement__density": [9.79, 2.7], "includesElement__dipole_polarizability": [48.0, 57.8], "includesElement__dipole_polarizability_unc": [4.0, 1.0], "includesElement__electron_affinity": [0.942362, 0.43283], "includesElement__electronegativity_allred-rochow": [0.0002763037, 0.0002204586], "includesElement__electronegativity_cottrell-sutton": [0.2042593, 0.1666667], "includesElement__electronegativity_ghosh": [0.182377, 0.150078], "includesElement__electronegativity_gordy": [0.04172185, 0.02777778], "includesElement__electronegativity_mulliken": [4.113939, 3.209299], "includesElement__electronegativity_nagle": [0.470518, 0.3730192], "includesElement__electronegativity_pauling": [1.9, 1.61], "includesElement__electronegativity_sanderson": [0.8136501, 0.2360927], "includesElement__en_ghosh": [0.182377, 0.150078], "includesElement__en_pauling": [1.9, 1.61], "includesElement__evaporation_heat": [172.0, 284.1], "includesElement__fusion_heat": [11.0, 10.75], "includesElement__glawe_number": [92, 78], "includesElement__group_id": [15, 13], "includesElement__heat_of_formation": [209.6, 330.9], "includesElement__is_radioactive": [false], "includesElement__lattice_constant": [4.75, 4.05], "includesElement__mendeleev_number": [97, 82], "includesElement__molar_heat_capacity": [25.52, 24.2], "includesElement__period": [6, 3], "includesElement__pettifor_number": [87, 80], "includesElement__specific_heat_capacity": [0.122, 0.897], "includesElement__vdw_radius": [207.0, 184.0], "includesElement__vdw_radius_alvarez": [254.0, 225.0], "includesElement__vdw_radius_mm3": [266.0, 236.0], "includesElement__vdw_radius_uff": [437.0, 449.9], "includesElement__abundance_sea": [2e-05, 0.002], "includesElement__atomic_weight_uncertainty": [1e-05, 7e-07], "includesElement__c6_gb": [513.0, 520.0], "includesElement__covalent_radius_bragg": [148.0, 135.0], "includesElement__electronegativity_allen": [11.9, 9.539], "includesElement__en_allen": [11.9, 9.539], "includesElement__metallic_radius": [151.0, 125.0], "includesElement__metallic_radius_c12": [178.0, 143.0], "includesElement__thermal_conductivity": [7.9, 237.0], "includesElement__vdw_radius_batsanov": [230.0, 210.0], "includesElement__is_monoisotopic": [true], "includesElement__vdw_radius_truhlar": [207.0, 184.0], "includesElement__discovery_year": [1825], "includesElement__c6": [528.0], "includesElement__vdw_radius_dreiding": [439.0], "formula": ["Al1Bi1"], "spacegroup": ["216"], "thermalConductivity": [4.40742], "icsd": ["184567"], "band_gap": [0.0], "density": [5.843468], "density_atomic": [33.52667], "deprecated": [false], "efermi": [3.674005], "energy_above_hull": [0.06617069], "energy_per_atom": [-3.726862], "formation_energy_per_atom": [0.06617069], "homogeneous_poisson": [0.265], "is_gap_direct": [false], "is_magnetic": [false], "is_metal": [true], "is_stable": [false], "nelements": [2], "nsites": [2], "num_magnetic_sites": [0], "num_unique_magnetic_sites": [0], "theoretical": [true], "total_magnetization": [0.0], "total_magnetization_normalized_formula_units": [0.0], "total_magnetization_normalized_vol": [0.0], "uncorrected_energy_per_atom": [-3.726862], "universal_anisotropy": [0.503], "volume": [67.05333]}