{"includesElement": ["", "F", "S"], "includesElement___series_id": [6, 1], "includesElement__abundance_crust": [585.0, 350.0], "includesElement__atomic_number": [9, 16], "includesElement__atomic_radius": [50.0, 100.0], "includesElement__atomic_radius_rahm": [163.0, 214.0], "includesElement__atomic_volume": [17.1, 15.5], "includesElement__atomic_weight": [18.9984, 32.06], "includesElement__covalent_radius_cordero": [57.0, 105.0], "includesElement__covalent_radius_pyykko": [64.0, 103.0], "includesElement__covalent_radius_pyykko_double": [59.0, 94.0], "includesElement__covalent_radius_pyykko_triple": [53.0, 95.0], "includesElement__density": [0.001553, 2.07], "includesElement__dipole_polarizability": [3.74, 19.4], "includesElement__dipole_polarizability_unc": [0.08, 0.1], "includesElement__discovery_year": [1886], "includesElement__electron_affinity": [3.40119, 2.077104], "includesElement__electronegativity_allred-rochow": [0.001269531, 0.0005137148], "includesElement__electronegativity_cottrell-sutton": [0.2850439, 0.2300274], "includesElement__electronegativity_ghosh": [0.344443, 0.23596], "includesElement__electronegativity_gordy": [0.08125, 0.05291262], "includesElement__electronegativity_mulliken": [10.412, 6.218557], "includesElement__electronegativity_nagle": [1.232373, 0.6762644], "includesElement__electronegativity_pauling": [3.98, 2.58], "includesElement__electronegativity_sanderson": [1.017681, 0.6397251], "includesElement__en_ghosh": [0.344443, 0.23596], "includesElement__en_pauling": [3.98, 2.58], "includesElement__evaporation_heat": [6.54, 10.5], "includesElement__fusion_heat": [0.51, 1.23], "includesElement__glawe_number": [102, 96], "includesElement__group_id": [17, 16], "includesElement__heat_of_formation": [79.335, 277.17], "includesElement__is_radioactive": [false], "includesElement__mendeleev_number": [106, 100], "includesElement__molar_heat_capacity": [31.304, 22.7], "includesElement__period": [2, 3], "includesElement__pettifor_number": [102, 94], "includesElement__specific_heat_capacity": [0.824, 0.708], "includesElement__vdw_radius": [147.0, 180.0], "includesElement__vdw_radius_alvarez": [146.0, 189.0], "includesElement__vdw_radius_mm3": [171.0, 215.0], "includesElement__vdw_radius_uff": [336.4, 403.5], "includesElement__abundance_sea": [1.3, 905.0], "includesElement__atomic_weight_uncertainty": [6e-09], "includesElement__c6_gb": [10.2, 140.0], "includesElement__covalent_radius_bragg": [67.0, 102.0], "includesElement__electronegativity_allen": [24.8, 15.31], "includesElement__en_allen": [24.8, 15.31], "includesElement__thermal_conductivity": [0.028, 0.27], "includesElement__vdw_radius_batsanov": [150.0, 180.0], "includesElement__c6": [9.52, 134.0], "includesElement__is_monoisotopic": [true], "includesElement__vdw_radius_dreiding": [347.2, 403.0], "includesElement__gas_basicity": [315.1, 640.2], "includesElement__proton_affinity": [340.1, 664.3], "includesElement__vdw_radius_bondi": [147.0, 180.0], "includesElement__vdw_radius_rt": [146.0, 181.0], "includesElement__lattice_constant": [10.47], "includesElement__metallic_radius": [104.0], "includesElement__metallic_radius_c12": [127.0], "formula": ["F6S1"], "spacegroup": ["229"], "thermalConductivity": [3.39163], "icsd": ["214"], "band_gap": [5.8139], "density": [2.555471], "density_atomic": [13.55806], "deprecated": [false], "efermi": [-4.326172], "energy_above_hull": [0.008920995], "energy_per_atom": [-5.671634], "formation_energy_per_atom": [-1.846359], "is_gap_direct": [true], "is_magnetic": [false], "is_metal": [false], "is_stable": [false], "nelements": [2], "nsites": [7], "num_magnetic_sites": [0], "num_unique_magnetic_sites": [0], "theoretical": [false], "total_magnetization": [0.0], "total_magnetization_normalized_formula_units": [0.0], "total_magnetization_normalized_vol": [0.0], "uncorrected_energy_per_atom": [-5.671634], "volume": [94.90645], "cbm": [1.3712], "e_electronic": [1.714418], "e_ionic": [0.4331109], "e_total": [2.147529], "n": [1.309358], "vbm": [-4.4427]}