{"includesElement": ["", "Ca", "Te"], "includesElement___series_id": [4, 5], "includesElement__abundance_crust": [41500.0, 0.001], "includesElement__atomic_number": [20, 52], "includesElement__atomic_radius": [180.0, 140.0], "includesElement__atomic_radius_rahm": [270.0, 242.0], "includesElement__atomic_volume": [29.9, 20.5], "includesElement__atomic_weight": [40.078, 127.6], "includesElement__covalent_radius_cordero": [176.0, 138.0], "includesElement__covalent_radius_pyykko": [171.0, 136.0], "includesElement__covalent_radius_pyykko_double": [147.0, 128.0], "includesElement__covalent_radius_pyykko_triple": [133.0, 121.0], "includesElement__density": [1.54, 6.232], "includesElement__dipole_polarizability": [160.8, 38.0], "includesElement__dipole_polarizability_unc": [4.0], "includesElement__discovery_year": [1808, 1782], "includesElement__electron_affinity": [0.02455, 1.970876], "includesElement__electronegativity_allred-rochow": [9.746589e-05, 0.0003757569], "includesElement__electronegativity_cottrell-sutton": [0.1290994, 0.2260596], "includesElement__electronegativity_ghosh": [0.1154119, 0.2056992], "includesElement__electronegativity_gordy": [0.01666667, 0.05110294], "includesElement__electronegativity_mulliken": [3.068853, 5.490268], "includesElement__electronegativity_nagle": [0.2316939, 0.5404919], "includesElement__electronegativity_pauling": [1.0, 2.1], "includesElement__electronegativity_sanderson": [0.1901577, 0.8622506], "includesElement__en_ghosh": [0.1154119, 0.2056992], "includesElement__en_pauling": [1.0, 2.1], "includesElement__evaporation_heat": [153.6, 49.8], "includesElement__fusion_heat": [9.2, 17.91], "includesElement__glawe_number": [16, 94], "includesElement__group_id": [2, 16], "includesElement__heat_of_formation": [177.8, 196.6], "includesElement__is_radioactive": [false], "includesElement__lattice_constant": [5.58, 4.45], "includesElement__mendeleev_number": [7, 102], "includesElement__molar_heat_capacity": [25.929, 25.73], "includesElement__period": [4, 5], "includesElement__pettifor_number": [16, 92], "includesElement__specific_heat_capacity": [0.647, 0.202], "includesElement__vdw_radius": [231.0, 206.0], "includesElement__vdw_radius_alvarez": [262.0, 199.0], "includesElement__vdw_radius_mm3": [281.0, 244.0], "includesElement__vdw_radius_uff": [339.9, 447.0], "includesElement__abundance_sea": [412.0], "includesElement__atomic_weight_uncertainty": [0.004, 0.03], "includesElement__c6_gb": [2230.0, 471.0], "includesElement__covalent_radius_bragg": [170.0, 133.0], "includesElement__electronegativity_allen": [6.113, 12.76], "includesElement__en_allen": [6.113, 12.76], "includesElement__metallic_radius": [174.0, 137.0], "includesElement__metallic_radius_c12": [197.0, 160.0], "includesElement__vdw_radius_batsanov": [240.0, 210.0], "includesElement__c6": [2163.0, 445.0], "includesElement__vdw_radius_truhlar": [231.0], "includesElement__thermal_conductivity": [14.3], "includesElement__vdw_radius_dreiding": [423.0], "includesElement__vdw_radius_bondi": [206.0], "formula": ["Ca1Te1", "CaTe"], "mp_id": ["mp-1519"], "spacegroup": ["225"], "thermalConductivity": [6.50572, 11.63181, 12.1805], "icsd": ["186787"], "band_gap": [1.5535], "density": [4.265149], "density_atomic": [32.64081], "deprecated": [false], "efermi": [3.67272], "energy_above_hull": [0.0], "energy_per_atom": [-18.14527], "formation_energy_per_atom": [-1.917514], "homogeneous_poisson": [0.238], "is_gap_direct": [false], "is_magnetic": [false], "is_metal": [false], "is_stable": [true], "nelements": [2], "nsites": [2], "num_magnetic_sites": [0], "num_unique_magnetic_sites": [0], "theoretical": [false], "total_magnetization": [0.0], "total_magnetization_normalized_formula_units": [0.0], "total_magnetization_normalized_vol": [0.0], "uncorrected_energy_per_atom": [-18.14527], "universal_anisotropy": [0.47], "volume": [65.28162], "cbm": [5.133], "e_electronic": [6.59229], "e_ionic": [6.366027], "e_total": [12.95832], "equilibrium_reaction_energy_per_atom": [-1.917514], "n": [2.567546], "vbm": [3.5795]}