{"includesElement": ["", "Sn", "Rh"], "includesElement___series_id": [7, 8], "includesElement__abundance_crust": [2.3, 0.001], "includesElement__atomic_number": [50, 45], "includesElement__atomic_radius": [145.0, 135.0], "includesElement__atomic_radius_rahm": [248.0, 233.0], "includesElement__atomic_volume": [16.3, 8.3], "includesElement__atomic_weight": [118.71, 102.9055], "includesElement__covalent_radius_cordero": [139.0, 142.0], "includesElement__covalent_radius_pyykko": [140.0, 125.0], "includesElement__covalent_radius_pyykko_double": [130.0, 110.0], "includesElement__covalent_radius_pyykko_triple": [132.0, 106.0], "includesElement__density": [7.287, 12.4], "includesElement__dipole_polarizability": [53.0, 66.0], "includesElement__dipole_polarizability_unc": [6.0, 10.0], "includesElement__electron_affinity": [1.112067, 1.137], "includesElement__electronegativity_allred-rochow": [0.0002882653, 0.0002176], "includesElement__electronegativity_cottrell-sutton": [0.2008909, 0.1649242], "includesElement__electronegativity_ghosh": [0.178052, 0.1408379], "includesElement__electronegativity_gordy": [0.04035714, 0.0272], "includesElement__electronegativity_mulliken": [4.227992, 4.29795], "includesElement__electronegativity_nagle": [0.4225986, 0.5147142], "includesElement__electronegativity_pauling": [1.96, 2.28], "includesElement__electronegativity_sanderson": [0.7622797, 0.9761915], "includesElement__en_ghosh": [0.178052, 0.1408379], "includesElement__en_pauling": [1.96, 2.28], "includesElement__evaporation_heat": [296.0, 494.0], "includesElement__fusion_heat": [7.07, 21.8], "includesElement__glawe_number": [83, 63], "includesElement__group_id": [14, 9], "includesElement__heat_of_formation": [301.2, 556.0], "includesElement__is_radioactive": [false], "includesElement__lattice_constant": [5.82, 3.8], "includesElement__mendeleev_number": [90, 64], "includesElement__molar_heat_capacity": [26.99, 24.98], "includesElement__period": [5], "includesElement__pettifor_number": [83, 66], "includesElement__specific_heat_capacity": [0.227, 0.243], "includesElement__vdw_radius": [217.0, 210.0], "includesElement__vdw_radius_alvarez": [242.0, 244.0], "includesElement__vdw_radius_mm3": [259.0, 234.0], "includesElement__vdw_radius_uff": [439.2, 292.9], "includesElement__abundance_sea": [4e-06], "includesElement__atomic_weight_uncertainty": [0.007, 2e-05], "includesElement__c6_gb": [715.0, 708.0], "includesElement__covalent_radius_bragg": [140.0], "includesElement__electronegativity_allen": [10.79, 9.259], "includesElement__en_allen": [10.79, 9.259], "includesElement__metallic_radius": [142.0, 125.0], "includesElement__metallic_radius_c12": [163.0, 134.0], "includesElement__thermal_conductivity": [66.8, 150.0], "includesElement__vdw_radius_batsanov": [225.0, 200.0], "includesElement__c6": [659.0], "includesElement__vdw_radius_dreiding": [447.0], "includesElement__vdw_radius_bondi": [217.0], "includesElement__discovery_year": [1803], "includesElement__is_monoisotopic": [true], "includesElement__gas_basicity": [745.4], "includesElement__proton_affinity": [768.0], "formula": ["Rh4Sn4"], "spacegroup": ["198"], "thermalConductivity": [2.60165], "icsd": ["105929"], "band_gap": [0.0], "density": [10.70968], "density_atomic": [17.18078], "deprecated": [false], "efermi": [9.199356], "energy_above_hull": [0.0], "energy_per_atom": [-6.14984], "formation_energy_per_atom": [-0.4628998], "homogeneous_poisson": [0.327], "is_gap_direct": [false], "is_magnetic": [false], "is_metal": [true], "is_stable": [true], "nelements": [2], "nsites": [8], "num_magnetic_sites": [0], "num_unique_magnetic_sites": [0], "theoretical": [false], "total_magnetization": [1e-07], "total_magnetization_normalized_formula_units": [2.5e-08], "total_magnetization_normalized_vol": [7.275573e-10], "uncorrected_energy_per_atom": [-24.89702], "universal_anisotropy": [0.006], "volume": [137.4462], "equilibrium_reaction_energy_per_atom": [-0.07429552]}