{"includesElement": ["", "As", "Ga"], "includesElement___series_id": [5, 7], "includesElement__abundance_crust": [1.8, 19.0], "includesElement__atomic_number": [33, 31], "includesElement__atomic_radius": [115.0, 130.0], "includesElement__atomic_radius_rahm": [231.0, 233.0], "includesElement__atomic_volume": [13.1, 11.8], "includesElement__atomic_weight": [74.92159, 69.723], "includesElement__covalent_radius_cordero": [119.0, 122.0], "includesElement__covalent_radius_pyykko": [121.0, 124.0], "includesElement__covalent_radius_pyykko_double": [114.0, 117.0], "includesElement__covalent_radius_pyykko_triple": [106.0, 121.0], "includesElement__density": [5.75, 5.91], "includesElement__dipole_polarizability": [30.0, 50.0], "includesElement__dipole_polarizability_unc": [1.0, 3.0], "includesElement__electron_affinity": [0.804, 0.43], "includesElement__electronegativity_allred-rochow": [0.0004302985, 0.0003251821], "includesElement__electronegativity_cottrell-sutton": [0.22818, 0.2008048], "includesElement__electronegativity_ghosh": [0.2068208, 0.1723773], "includesElement__electronegativity_gordy": [0.05206612, 0.04032258], "includesElement__electronegativity_mulliken": [5.2965, 3.214651], "includesElement__electronegativity_nagle": [0.5503212, 0.3914868], "includesElement__electronegativity_pauling": [2.18, 1.81], "includesElement__electronegativity_sanderson": [0.8253373, 0.720541], "includesElement__en_ghosh": [0.2068208, 0.1723773], "includesElement__en_pauling": [2.18, 1.81], "includesElement__evaporation_heat": [32.4, 270.3], "includesElement__glawe_number": [90, 79], "includesElement__group_id": [15, 13], "includesElement__heat_of_formation": [302.5, 271.96], "includesElement__is_radioactive": [false], "includesElement__lattice_constant": [4.13, 4.51], "includesElement__mendeleev_number": [95, 83], "includesElement__molar_heat_capacity": [24.64, 26.03], "includesElement__period": [4], "includesElement__pettifor_number": [89, 81], "includesElement__specific_heat_capacity": [0.329, 0.373], "includesElement__vdw_radius": [185.0, 187.0], "includesElement__vdw_radius_alvarez": [188.0, 232.0], "includesElement__vdw_radius_mm3": [236.0, 246.0], "includesElement__vdw_radius_uff": [423.0, 438.3], "includesElement__abundance_sea": [0.0037, 3e-05], "includesElement__atomic_weight_uncertainty": [6e-06, 0.001], "includesElement__c6_gb": [260.0, 456.0], "includesElement__covalent_radius_bragg": [126.0], "includesElement__electronegativity_allen": [13.08, 10.39], "includesElement__en_allen": [13.08, 10.39], "includesElement__metallic_radius": [121.0, 125.0], "includesElement__metallic_radius_c12": [148.0, 140.0], "includesElement__vdw_radius_batsanov": [205.0, 210.0], "includesElement__c6": [246.0, 498.0], "includesElement__is_monoisotopic": [true], "includesElement__vdw_radius_dreiding": [415.0, 439.0], "includesElement__vdw_radius_bondi": [185.0, 187.0], "includesElement__discovery_year": [1875], "includesElement__fusion_heat": [5.59], "includesElement__thermal_conductivity": [28.1], "formula": ["As8Ga8"], "spacegroup": ["205"], "thermalConductivity": [2.11284], "icsd": ["41992"], "band_gap": [0.0], "density": [5.476443], "density_atomic": [21.9292], "deprecated": [false], "efermi": [3.600425], "energy_above_hull": [0.1440236], "energy_per_atom": [-13.37741], "formation_energy_per_atom": [-0.3022535], "homogeneous_poisson": [0.21], "is_gap_direct": [false], "is_magnetic": [false], "is_metal": [true], "is_stable": [false], "nelements": [2], "nsites": [16], "num_magnetic_sites": [0], "num_unique_magnetic_sites": [0], "theoretical": [true], "total_magnetization": [0.0003142], "total_magnetization_normalized_formula_units": [3.9275e-05], "total_magnetization_normalized_vol": [8.954956e-07], "uncorrected_energy_per_atom": [-4.052101], "universal_anisotropy": [0.001], "volume": [350.8672]}