{"includesElement": ["", "Al", "F"], "includesElement___series_id": [7, 6], "includesElement__abundance_crust": [82300.0, 585.0], "includesElement__atomic_number": [13, 9], "includesElement__atomic_radius": [125.0, 50.0], "includesElement__atomic_radius_rahm": [239.0, 163.0], "includesElement__atomic_volume": [10.0, 17.1], "includesElement__atomic_weight": [26.98154, 18.9984], "includesElement__covalent_radius_cordero": [121.0, 57.0], "includesElement__covalent_radius_pyykko": [126.0, 64.0], "includesElement__covalent_radius_pyykko_double": [113.0, 59.0], "includesElement__covalent_radius_pyykko_triple": [111.0, 53.0], "includesElement__density": [2.7, 0.001553], "includesElement__dipole_polarizability": [57.8, 3.74], "includesElement__dipole_polarizability_unc": [1.0, 0.08], "includesElement__discovery_year": [1825, 1886], "includesElement__electron_affinity": [0.43283, 3.40119], "includesElement__electronegativity_allred-rochow": [0.0002204586, 0.001269531], "includesElement__electronegativity_cottrell-sutton": [0.1666667, 0.2850439], "includesElement__electronegativity_ghosh": [0.150078, 0.344443], "includesElement__electronegativity_gordy": [0.02777778, 0.08125], "includesElement__electronegativity_mulliken": [3.209299, 10.412], "includesElement__electronegativity_nagle": [0.3730192, 1.232373], "includesElement__electronegativity_pauling": [1.61, 3.98], "includesElement__electronegativity_sanderson": [0.2360927, 1.017681], "includesElement__en_ghosh": [0.150078, 0.344443], "includesElement__en_pauling": [1.61, 3.98], "includesElement__evaporation_heat": [284.1, 6.54], "includesElement__fusion_heat": [10.75, 0.51], "includesElement__glawe_number": [78, 102], "includesElement__group_id": [13, 17], "includesElement__heat_of_formation": [330.9, 79.335], "includesElement__is_radioactive": [false], "includesElement__lattice_constant": [4.05], "includesElement__mendeleev_number": [82, 106], "includesElement__molar_heat_capacity": [24.2, 31.304], "includesElement__period": [3, 2], "includesElement__pettifor_number": [80, 102], "includesElement__specific_heat_capacity": [0.897, 0.824], "includesElement__vdw_radius": [184.0, 147.0], "includesElement__vdw_radius_alvarez": [225.0, 146.0], "includesElement__vdw_radius_mm3": [236.0, 171.0], "includesElement__vdw_radius_uff": [449.9, 336.4], "includesElement__abundance_sea": [0.002, 1.3], "includesElement__atomic_weight_uncertainty": [7e-07, 6e-09], "includesElement__c6_gb": [520.0, 10.2], "includesElement__covalent_radius_bragg": [135.0, 67.0], "includesElement__electronegativity_allen": [9.539, 24.8], "includesElement__en_allen": [9.539, 24.8], "includesElement__metallic_radius": [125.0], "includesElement__metallic_radius_c12": [143.0], "includesElement__thermal_conductivity": [237.0, 0.028], "includesElement__vdw_radius_batsanov": [210.0, 150.0], "includesElement__c6": [528.0, 9.52], "includesElement__is_monoisotopic": [true], "includesElement__vdw_radius_dreiding": [439.0, 347.2], "includesElement__vdw_radius_truhlar": [184.0], "includesElement__gas_basicity": [315.1], "includesElement__proton_affinity": [340.1], "includesElement__vdw_radius_bondi": [147.0], "includesElement__vdw_radius_rt": [146.0], "formula": ["Al1F3"], "spacegroup": ["221"], "thermalConductivity": [17.2537], "icsd": ["130021"], "band_gap": [7.4203], "density": [3.015251], "density_atomic": [11.56178], "deprecated": [false], "efermi": [-1.261669], "energy_above_hull": [0.009358996], "energy_per_atom": [-7.883956], "formation_energy_per_atom": [-3.85819], "homogeneous_poisson": [0.245], "is_gap_direct": [false], "is_magnetic": [false], "is_metal": [false], "is_stable": [false], "nelements": [2], "nsites": [4], "num_magnetic_sites": [0], "num_unique_magnetic_sites": [0], "theoretical": [false], "total_magnetization": [0.0], "total_magnetization_normalized_formula_units": [0.0], "total_magnetization_normalized_vol": [0.0], "uncorrected_energy_per_atom": [-7.883956], "universal_anisotropy": [0.947], "volume": [46.24712], "cbm": [6.0905], "e_electronic": [1.903633], "e_ionic": [3.025376], "e_total": [4.92901], "n": [1.379722], "vbm": [-1.3298]}