{"includesElement": ["", "La", "Pt"], "includesElement___series_id": [9, 8], "includesElement__abundance_crust": [39.0, 0.005], "includesElement__atomic_number": [57, 78], "includesElement__atomic_radius": [195.0, 135.0], "includesElement__atomic_radius_rahm": [284.0, 230.0], "includesElement__atomic_volume": [22.5, 9.1], "includesElement__atomic_weight": [138.9055, 195.084], "includesElement__covalent_radius_cordero": [207.0, 136.0], "includesElement__covalent_radius_pyykko": [180.0, 123.0], "includesElement__covalent_radius_pyykko_double": [139.0, 112.0], "includesElement__covalent_radius_pyykko_triple": [139.0, 110.0], "includesElement__density": [6.15, 21.5], "includesElement__dipole_polarizability": [215.0, 48.0], "includesElement__dipole_polarizability_unc": [20.0, 4.0], "includesElement__discovery_year": [1839, 1735], "includesElement__electron_affinity": [0.47, 2.128], "includesElement__electronegativity_allred-rochow": [9.259259e-05, 0.0002346487], "includesElement__electronegativity_cottrell-sutton": [0.1290994, 0.1698876], "includesElement__electronegativity_ghosh": [0.163142, 0.25691], "includesElement__electronegativity_gordy": [0.01666667, 0.02886179], "includesElement__electronegativity_mulliken": [3.02345, 5.543415], "includesElement__electronegativity_nagle": [0.240747, 0.5928156], "includesElement__electronegativity_pauling": [1.1, 2.2], "includesElement__electronegativity_sanderson": [0.3946505, 1.45101], "includesElement__en_ghosh": [0.163142, 0.25691], "includesElement__en_pauling": [1.1, 2.2], "includesElement__evaporation_heat": [402.0, 470.0], "includesElement__fusion_heat": [8.5, 21.76], "includesElement__glawe_number": [32, 64], "includesElement__group_id": [3, 10], "includesElement__heat_of_formation": [431.0, 565.7], "includesElement__is_radioactive": [false], "includesElement__lattice_constant": [3.75, 3.92], "includesElement__mendeleev_number": [13, 69], "includesElement__molar_heat_capacity": [27.11, 25.86], "includesElement__period": [6], "includesElement__pettifor_number": [33, 68], "includesElement__specific_heat_capacity": [0.195, 0.133], "includesElement__vdw_radius": [243.0, 213.0], "includesElement__vdw_radius_alvarez": [298.0, 229.0], "includesElement__vdw_radius_mm3": [278.0, 239.0], "includesElement__vdw_radius_uff": [352.2, 275.4], "includesElement__abundance_sea": [3.4e-06], "includesElement__atomic_weight_uncertainty": [7e-05, 0.009], "includesElement__c6_gb": [3730.0, 470.0], "includesElement__metallic_radius": [169.0, 130.0], "includesElement__metallic_radius_c12": [187.0, 139.0], "includesElement__thermal_conductivity": [13.4, 71.6], "includesElement__vdw_radius_batsanov": [250.0, 205.0], "includesElement__gas_basicity": [991.9], "includesElement__proton_affinity": [1013.0], "includesElement__electronegativity_allen": [10.16], "includesElement__en_allen": [10.16], "formula": ["La1Pt3"], "spacegroup": ["221"], "thermalConductivity": [2.5548], "icsd": ["104701"], "band_gap": [0.0], "density": [16.0644], "density_atomic": [18.71362], "deprecated": [false], "efermi": [8.189385], "energy_above_hull": [0.1121987], "energy_per_atom": [-46.95413], "formation_energy_per_atom": [-0.9021456], "homogeneous_poisson": [0.339], "is_gap_direct": [false], "is_magnetic": [false], "is_metal": [true], "is_stable": [false], "nelements": [2], "nsites": [4], "num_magnetic_sites": [0], "num_unique_magnetic_sites": [0], "theoretical": [false], "total_magnetization": [1.04e-05], "total_magnetization_normalized_formula_units": [1.04e-05], "total_magnetization_normalized_vol": [1.389363e-07], "uncorrected_energy_per_atom": [-46.95413], "universal_anisotropy": [0.207], "volume": [74.85446]}