{"includesElement": ["", "Ga", "La"], "includesElement___series_id": [7, 9], "includesElement__abundance_crust": [19.0, 39.0], "includesElement__atomic_number": [31, 57], "includesElement__atomic_radius": [130.0, 195.0], "includesElement__atomic_radius_rahm": [233.0, 284.0], "includesElement__atomic_volume": [11.8, 22.5], "includesElement__atomic_weight": [69.723, 138.9055], "includesElement__covalent_radius_cordero": [122.0, 207.0], "includesElement__covalent_radius_pyykko": [124.0, 180.0], "includesElement__covalent_radius_pyykko_double": [117.0, 139.0], "includesElement__covalent_radius_pyykko_triple": [121.0, 139.0], "includesElement__density": [5.91, 6.15], "includesElement__dipole_polarizability": [50.0, 215.0], "includesElement__dipole_polarizability_unc": [3.0, 20.0], "includesElement__discovery_year": [1875, 1839], "includesElement__electron_affinity": [0.43, 0.47], "includesElement__electronegativity_allred-rochow": [0.0003251821, 9.259259e-05], "includesElement__electronegativity_cottrell-sutton": [0.2008048, 0.1290994], "includesElement__electronegativity_ghosh": [0.1723773, 0.163142], "includesElement__electronegativity_gordy": [0.04032258, 0.01666667], "includesElement__electronegativity_mulliken": [3.214651, 3.02345], "includesElement__electronegativity_nagle": [0.3914868, 0.240747], "includesElement__electronegativity_pauling": [1.81, 1.1], "includesElement__electronegativity_sanderson": [0.720541, 0.3946505], "includesElement__en_ghosh": [0.1723773, 0.163142], "includesElement__en_pauling": [1.81, 1.1], "includesElement__evaporation_heat": [270.3, 402.0], "includesElement__fusion_heat": [5.59, 8.5], "includesElement__glawe_number": [79, 32], "includesElement__group_id": [13, 3], "includesElement__heat_of_formation": [271.96, 431.0], "includesElement__is_radioactive": [false], "includesElement__lattice_constant": [4.51, 3.75], "includesElement__mendeleev_number": [83, 13], "includesElement__molar_heat_capacity": [26.03, 27.11], "includesElement__period": [4, 6], "includesElement__pettifor_number": [81, 33], "includesElement__specific_heat_capacity": [0.373, 0.195], "includesElement__vdw_radius": [187.0, 243.0], "includesElement__vdw_radius_alvarez": [232.0, 298.0], "includesElement__vdw_radius_mm3": [246.0, 278.0], "includesElement__vdw_radius_uff": [438.3, 352.2], "includesElement__abundance_sea": [3e-05, 3.4e-06], "includesElement__atomic_weight_uncertainty": [0.001, 7e-05], "includesElement__c6_gb": [456.0, 3730.0], "includesElement__electronegativity_allen": [10.39], "includesElement__en_allen": [10.39], "includesElement__metallic_radius": [125.0, 169.0], "includesElement__metallic_radius_c12": [140.0, 187.0], "includesElement__thermal_conductivity": [28.1, 13.4], "includesElement__vdw_radius_batsanov": [210.0, 250.0], "includesElement__c6": [498.0], "includesElement__vdw_radius_dreiding": [439.0], "includesElement__vdw_radius_bondi": [187.0], "includesElement__gas_basicity": [991.9], "includesElement__proton_affinity": [1013.0], "formula": ["Ga1La3"], "spacegroup": ["221"], "thermalConductivity": [1.53473], "icsd": ["103765"], "band_gap": [0.0], "density": [6.738399], "density_atomic": [29.96823], "deprecated": [false], "efermi": [7.882453], "energy_above_hull": [0.07183332], "energy_per_atom": [-25.47248], "formation_energy_per_atom": [-0.3032014], "homogeneous_poisson": [0.326], "is_gap_direct": [false], "is_magnetic": [false], "is_metal": [true], "is_stable": [false], "nelements": [2], "nsites": [4], "num_magnetic_sites": [0], "num_unique_magnetic_sites": [0], "theoretical": [false], "total_magnetization": [0.0128608], "total_magnetization_normalized_formula_units": [0.0128608], "total_magnetization_normalized_vol": [0.0001072869], "uncorrected_energy_per_atom": [-25.47248], "universal_anisotropy": [0.799], "volume": [119.8729]}