{"includesElement": ["", "Hg", "Zr"], "includesElement___series_id": [8], "includesElement__abundance_crust": [0.085, 165.0], "includesElement__atomic_number": [80, 40], "includesElement__atomic_radius": [150.0, 155.0], "includesElement__atomic_radius_rahm": [229.0, 269.0], "includesElement__atomic_volume": [14.8, 14.1], "includesElement__atomic_weight": [200.592, 91.224], "includesElement__covalent_radius_cordero": [132.0, 175.0], "includesElement__covalent_radius_pyykko": [133.0, 154.0], "includesElement__covalent_radius_pyykko_double": [142.0, 127.0], "includesElement__density": [13.5336, 6.52], "includesElement__dipole_polarizability": [33.91, 112.0], "includesElement__dipole_polarizability_unc": [0.34, 13.0], "includesElement__electronegativity_allred-rochow": [0.0002459155, 0.0001328217], "includesElement__electronegativity_cottrell-sutton": [0.1808501, 0.1430194], "includesElement__electronegativity_ghosh": [0.169, 0.1248887], "includesElement__electronegativity_gordy": [0.03270677, 0.02045455], "includesElement__electronegativity_mulliken": [5.218752, 3.52995], "includesElement__electronegativity_nagle": [0.7073231, 0.3293169], "includesElement__electronegativity_pauling": [1.9, 1.33], "includesElement__electronegativity_sanderson": [1.164789, 0.4744467], "includesElement__en_ghosh": [0.169, 0.1248887], "includesElement__en_pauling": [1.9, 1.33], "includesElement__evaporation_heat": [58.5, 567.0], "includesElement__fusion_heat": [2.295, 19.2], "includesElement__glawe_number": [76, 49], "includesElement__group_id": [12, 4], "includesElement__heat_of_formation": [61.38, 610.0], "includesElement__is_radioactive": [false], "includesElement__lattice_constant": [2.99, 3.23], "includesElement__mendeleev_number": [79, 44], "includesElement__molar_heat_capacity": [27.983, 25.36], "includesElement__period": [6, 5], "includesElement__pettifor_number": [74, 49], "includesElement__specific_heat_capacity": [0.14, 0.278], "includesElement__vdw_radius": [223.0], "includesElement__vdw_radius_alvarez": [245.0, 252.0], "includesElement__vdw_radius_mm3": [253.0, 254.0], "includesElement__vdw_radius_uff": [270.5, 312.4], "includesElement__abundance_sea": [3e-05], "includesElement__atomic_weight_uncertainty": [0.003, 0.002], "includesElement__c6_gb": [268.0, 1360.0], "includesElement__electronegativity_allen": [10.44, 7.808], "includesElement__en_allen": [10.44, 7.808], "includesElement__metallic_radius": [139.0, 145.0], "includesElement__metallic_radius_c12": [151.0, 160.0], "includesElement__thermal_conductivity": [8.3, 22.7], "includesElement__vdw_radius_batsanov": [205.0, 230.0], "includesElement__covalent_radius_pyykko_triple": [121.0], "includesElement__discovery_year": [1789], "includesElement__electron_affinity": [0.426], "formula": ["Hg3Zr1"], "spacegroup": ["221"], "thermalConductivity": [0.569409], "icsd": ["104376"], "band_gap": [0.0], "density": [13.34682], "density_atomic": [21.55464], "deprecated": [false], "efermi": [3.764465], "energy_above_hull": [0.02171307], "energy_per_atom": [-2.430833], "formation_energy_per_atom": [-0.06165372], "homogeneous_poisson": [0.416], "is_gap_direct": [false], "is_magnetic": [false], "is_metal": [true], "is_stable": [false], "nelements": [2], "nsites": [4], "num_magnetic_sites": [0], "num_unique_magnetic_sites": [0], "theoretical": [false], "total_magnetization": [7e-06], "total_magnetization_normalized_formula_units": [7e-06], "total_magnetization_normalized_vol": [8.118902e-08], "uncorrected_energy_per_atom": [-42.80789], "universal_anisotropy": [23.117], "volume": [86.21855]}