{"includesElement": ["", "Ta", "H"], "includesElement___series_id": [8, 1], "includesElement__abundance_crust": [2.0, 1400.0], "includesElement__atomic_number": [73, 1], "includesElement__atomic_radius": [145.0, 25.0], "includesElement__atomic_radius_rahm": [258.0, 154.0], "includesElement__atomic_volume": [10.9, 14.1], "includesElement__atomic_weight": [180.9479, 1.008], "includesElement__covalent_radius_cordero": [170.0, 31.0], "includesElement__covalent_radius_pyykko": [146.0, 32.0], "includesElement__covalent_radius_pyykko_double": [126.0], "includesElement__covalent_radius_pyykko_triple": [119.0], "includesElement__density": [16.4, 8.2e-05], "includesElement__dipole_polarizability": [74.0, 4.50711], "includesElement__dipole_polarizability_unc": [20.0, 3e-05], "includesElement__discovery_year": [1802, 1766], "includesElement__electron_affinity": [0.322, 0.754195], "includesElement__electronegativity_allred-rochow": [0.0001548133, 0.0009765625], "includesElement__electronegativity_cottrell-sutton": [0.1503421, 0.1767767], "includesElement__electronegativity_ghosh": [0.234581, 0.2638], "includesElement__electronegativity_gordy": [0.02260274, 0.03125], "includesElement__electronegativity_mulliken": [3.935785, 7.176315], "includesElement__electronegativity_nagle": [0.4072985, 0.6053882], "includesElement__electronegativity_pauling": [1.5, 2.2], "includesElement__electronegativity_sanderson": [0.8358832, 2.187771], "includesElement__en_ghosh": [0.234581, 0.2638], "includesElement__en_pauling": [1.5, 2.2], "includesElement__evaporation_heat": [758.0, 0.904], "includesElement__fusion_heat": [24.7, 0.117], "includesElement__glawe_number": [52, 103], "includesElement__group_id": [5, 1], "includesElement__heat_of_formation": [782.0, 217.998], "includesElement__is_radioactive": [false], "includesElement__lattice_constant": [3.31, 3.75], "includesElement__mendeleev_number": [49, 105], "includesElement__molar_heat_capacity": [25.36, 28.836], "includesElement__period": [6, 1], "includesElement__pettifor_number": [53, 103], "includesElement__specific_heat_capacity": [0.14, 14.304], "includesElement__vdw_radius": [222.0, 110.0], "includesElement__vdw_radius_alvarez": [253.0, 120.0], "includesElement__vdw_radius_mm3": [243.0, 162.0], "includesElement__vdw_radius_uff": [317.0, 288.6], "includesElement__abundance_sea": [2e-06, 108000.0], "includesElement__atomic_weight_uncertainty": [2e-05], "includesElement__c6_gb": [887.0, 6.51], "includesElement__electronegativity_allen": [7.93, 13.61], "includesElement__en_allen": [7.93, 13.61], "includesElement__metallic_radius": [134.0], "includesElement__metallic_radius_c12": [146.0, 78.0], "includesElement__thermal_conductivity": [57.5, 0.1815], "includesElement__vdw_radius_batsanov": [220.0], "includesElement__c6": [6.499027], "includesElement__vdw_radius_dreiding": [319.5], "includesElement__vdw_radius_bondi": [120.0], "includesElement__vdw_radius_rt": [110.0], "formula": ["H2Ta1"], "spacegroup": ["225"], "thermalConductivity": [8.61554], "icsd": ["56172"], "band_gap": [0.0], "density": [13.19532], "density_atomic": [7.674905], "deprecated": [false], "efermi": [5.872544], "energy_above_hull": [0.0], "energy_per_atom": [-18.6005], "formation_energy_per_atom": [-0.0998176], "homogeneous_poisson": [0.366], "is_gap_direct": [false], "is_magnetic": [false], "is_metal": [true], "is_stable": [true], "nelements": [2], "nsites": [3], "num_magnetic_sites": [0], "num_unique_magnetic_sites": [0], "theoretical": [false], "total_magnetization": [3e-07], "total_magnetization_normalized_formula_units": [3e-07], "total_magnetization_normalized_vol": [1.302948e-08], "uncorrected_energy_per_atom": [-18.6005], "universal_anisotropy": [0.035], "volume": [23.02471], "equilibrium_reaction_energy_per_atom": [-0.01140198]}