{"includesElement": ["", "Si", "Er"], "includesElement___series_id": [5, 9], "includesElement__abundance_crust": [282000.0, 3.5], "includesElement__atomic_number": [14, 68], "includesElement__atomic_radius": [110.0, 175.0], "includesElement__atomic_radius_rahm": [232.0, 272.0], "includesElement__atomic_volume": [12.1, 18.4], "includesElement__atomic_weight": [28.085, 167.259], "includesElement__covalent_radius_cordero": [111.0, 189.0], "includesElement__covalent_radius_pyykko": [116.0, 165.0], "includesElement__covalent_radius_pyykko_double": [107.0, 133.0], "includesElement__covalent_radius_pyykko_triple": [102.0], "includesElement__density": [2.3296, 9.07], "includesElement__dipole_polarizability": [37.3, 150.0], "includesElement__dipole_polarizability_unc": [0.7, 10.0], "includesElement__discovery_year": [1824, 1843], "includesElement__electron_affinity": [1.389521], "includesElement__electronegativity_allred-rochow": [0.0003084126, 0.0001046832], "includesElement__electronegativity_cottrell-sutton": [0.1891451, 0.1314257], "includesElement__electronegativity_ghosh": [0.178503, 0.212261], "includesElement__electronegativity_gordy": [0.03577586, 0.01727273], "includesElement__electronegativity_mulliken": [4.770602, 3.05385], "includesElement__electronegativity_nagle": [0.4750986, 0.4536061], "includesElement__electronegativity_pauling": [1.9, 1.24], "includesElement__electronegativity_sanderson": [0.3468158, 0.5576573], "includesElement__en_ghosh": [0.178503, 0.212261], "includesElement__en_pauling": [1.9, 1.24], "includesElement__evaporation_heat": [383.0, 317.0], "includesElement__fusion_heat": [50.6], "includesElement__glawe_number": [85, 22], "includesElement__group_id": [14], "includesElement__heat_of_formation": [450.0, 316.4], "includesElement__is_radioactive": [false], "includesElement__lattice_constant": [5.43, 3.56], "includesElement__mendeleev_number": [88, 35], "includesElement__molar_heat_capacity": [19.99, 28.12], "includesElement__period": [3, 6], "includesElement__pettifor_number": [85, 23], "includesElement__specific_heat_capacity": [0.712, 0.168], "includesElement__vdw_radius": [210.0, 229.0], "includesElement__vdw_radius_alvarez": [219.0, 283.0], "includesElement__vdw_radius_mm3": [229.0, 267.0], "includesElement__vdw_radius_uff": [429.5, 339.1], "includesElement__abundance_sea": [2.2, 8.7e-07], "includesElement__c6_gb": [308.0, 2150.0], "includesElement__covalent_radius_bragg": [117.0], "includesElement__electronegativity_allen": [11.33], "includesElement__en_allen": [11.33], "includesElement__metallic_radius": [117.0], "includesElement__metallic_radius_c12": [138.0], "includesElement__thermal_conductivity": [149.0], "includesElement__vdw_radius_batsanov": [210.0], "includesElement__c6": [305.0], "includesElement__vdw_radius_dreiding": [427.0], "includesElement__gas_basicity": [814.1], "includesElement__proton_affinity": [837.0], "includesElement__vdw_radius_bondi": [210.0], "includesElement__atomic_weight_uncertainty": [0.003], "formula": ["Er2Si2"], "spacegroup": ["63"], "thermalConductivity": [12.3078], "icsd": ["106621"], "band_gap": [0.0], "density": [7.796092], "density_atomic": [20.80383], "deprecated": [false], "efermi": [5.418397], "energy_above_hull": [0.002141467], "energy_per_atom": [-22.23458], "formation_energy_per_atom": [-0.8849795], "homogeneous_poisson": [0.214], "is_gap_direct": [false], "is_magnetic": [false], "is_metal": [true], "is_stable": [false], "nelements": [2], "nsites": [4], "num_magnetic_sites": [0], "num_unique_magnetic_sites": [0], "theoretical": [false], "total_magnetization": [4.7e-06], "total_magnetization_normalized_formula_units": [2.35e-06], "total_magnetization_normalized_vol": [5.647998e-08], "uncorrected_energy_per_atom": [-22.23458], "universal_anisotropy": [0.557], "volume": [83.21532]}