{"includesElement": ["", "Pb", "Y"], "includesElement___series_id": [7, 8], "includesElement__abundance_crust": [14.0, 33.0], "includesElement__atomic_number": [82, 39], "includesElement__atomic_radius": [180.0], "includesElement__atomic_radius_rahm": [249.0, 274.0], "includesElement__atomic_volume": [18.3, 19.8], "includesElement__atomic_weight": [207.2, 88.90584], "includesElement__covalent_radius_cordero": [146.0, 190.0], "includesElement__covalent_radius_pyykko": [144.0, 163.0], "includesElement__covalent_radius_pyykko_double": [135.0, 130.0], "includesElement__covalent_radius_pyykko_triple": [137.0, 124.0], "includesElement__density": [11.3, 4.47], "includesElement__dipole_polarizability": [47.0, 162.0], "includesElement__dipole_polarizability_unc": [3.0, 12.0], "includesElement__electron_affinity": [0.3567432, 0.307], "includesElement__electronegativity_allred-rochow": [0.000272473, 0.0001129135], "includesElement__electronegativity_cottrell-sutton": [0.1980811, 0.1356647], "includesElement__electronegativity_ghosh": [0.177911, 0.1216986], "includesElement__electronegativity_gordy": [0.03923611, 0.01840491], "includesElement__electronegativity_mulliken": [3.886711, 3.26213], "includesElement__electronegativity_nagle": [0.4398663, 0.2645668], "includesElement__electronegativity_pauling": [1.8, 1.22], "includesElement__electronegativity_sanderson": [0.9313226, 0.3923941], "includesElement__en_ghosh": [0.177911, 0.1216986], "includesElement__en_pauling": [1.8, 1.22], "includesElement__evaporation_heat": [177.8, 367.0], "includesElement__fusion_heat": [4.77, 11.5], "includesElement__glawe_number": [82, 21], "includesElement__group_id": [14, 3], "includesElement__heat_of_formation": [195.2, 424.7], "includesElement__is_radioactive": [false], "includesElement__lattice_constant": [4.95, 3.65], "includesElement__mendeleev_number": [91, 12], "includesElement__molar_heat_capacity": [26.84, 26.53], "includesElement__period": [6, 5], "includesElement__pettifor_number": [82, 19], "includesElement__specific_heat_capacity": [0.13, 0.298], "includesElement__vdw_radius": [202.0, 232.0], "includesElement__vdw_radius_alvarez": [260.0, 275.0], "includesElement__vdw_radius_mm3": [274.0, 271.0], "includesElement__vdw_radius_uff": [429.7, 334.5], "includesElement__abundance_sea": [3e-05, 1.3e-05], "includesElement__atomic_weight_uncertainty": [0.1, 2e-05], "includesElement__c6_gb": [534.0, 2600.0], "includesElement__electronegativity_allen": [10.97, 6.631], "includesElement__en_allen": [10.97, 6.631], "includesElement__metallic_radius": [150.0, 162.0], "includesElement__metallic_radius_c12": [170.0, 180.0], "includesElement__thermal_conductivity": [35.3], "includesElement__vdw_radius_batsanov": [230.0, 240.0], "includesElement__vdw_radius_bondi": [202.0], "includesElement__discovery_year": [1789], "includesElement__is_monoisotopic": [true], "includesElement__gas_basicity": [945.9], "includesElement__proton_affinity": [967.0], "formula": ["Pb4Y2"], "spacegroup": ["63"], "thermalConductivity": [2.03079], "icsd": ["105640"], "band_gap": [0.0], "density": [9.765529], "density_atomic": [28.52752], "deprecated": [false], "efermi": [6.073222], "energy_above_hull": [0.0], "energy_per_atom": [-44.79865], "formation_energy_per_atom": [-0.5040247], "is_gap_direct": [false], "is_magnetic": [false], "is_metal": [true], "is_stable": [true], "nelements": [2], "nsites": [6], "num_magnetic_sites": [0], "num_unique_magnetic_sites": [0], "theoretical": [false], "total_magnetization": [5e-07], "total_magnetization_normalized_formula_units": [2.5e-07], "total_magnetization_normalized_vol": [2.921156e-09], "uncorrected_energy_per_atom": [-44.79865], "volume": [171.1651], "equilibrium_reaction_energy_per_atom": [-0.1082974]}