{"includesElement": ["", "Ca", "F"], "includesElement___series_id": [4, 6], "includesElement__abundance_crust": [41500.0, 585.0], "includesElement__atomic_number": [20, 9], "includesElement__atomic_radius": [180.0, 50.0], "includesElement__atomic_radius_rahm": [270.0, 163.0], "includesElement__atomic_volume": [29.9, 17.1], "includesElement__atomic_weight": [40.078, 18.9984], "includesElement__covalent_radius_cordero": [176.0, 57.0], "includesElement__covalent_radius_pyykko": [171.0, 64.0], "includesElement__covalent_radius_pyykko_double": [147.0, 59.0], "includesElement__covalent_radius_pyykko_triple": [133.0, 53.0], "includesElement__density": [1.54, 0.001553], "includesElement__dipole_polarizability": [160.8, 3.74], "includesElement__dipole_polarizability_unc": [4.0, 0.08], "includesElement__discovery_year": [1808, 1886], "includesElement__electron_affinity": [0.02455, 3.40119], "includesElement__electronegativity_allred-rochow": [9.746589e-05, 0.001269531], "includesElement__electronegativity_cottrell-sutton": [0.1290994, 0.2850439], "includesElement__electronegativity_ghosh": [0.1154119, 0.344443], "includesElement__electronegativity_gordy": [0.01666667, 0.08125], "includesElement__electronegativity_mulliken": [3.068853, 10.412], "includesElement__electronegativity_nagle": [0.2316939, 1.232373], "includesElement__electronegativity_pauling": [1.0, 3.98], "includesElement__electronegativity_sanderson": [0.1901577, 1.017681], "includesElement__en_ghosh": [0.1154119, 0.344443], "includesElement__en_pauling": [1.0, 3.98], "includesElement__evaporation_heat": [153.6, 6.54], "includesElement__fusion_heat": [9.2, 0.51], "includesElement__glawe_number": [16, 102], "includesElement__group_id": [2, 17], "includesElement__heat_of_formation": [177.8, 79.335], "includesElement__is_radioactive": [false], "includesElement__lattice_constant": [5.58], "includesElement__mendeleev_number": [7, 106], "includesElement__molar_heat_capacity": [25.929, 31.304], "includesElement__period": [4, 2], "includesElement__pettifor_number": [16, 102], "includesElement__specific_heat_capacity": [0.647, 0.824], "includesElement__vdw_radius": [231.0, 147.0], "includesElement__vdw_radius_alvarez": [262.0, 146.0], "includesElement__vdw_radius_mm3": [281.0, 171.0], "includesElement__vdw_radius_uff": [339.9, 336.4], "includesElement__abundance_sea": [412.0, 1.3], "includesElement__atomic_weight_uncertainty": [0.004, 6e-09], "includesElement__c6_gb": [2230.0, 10.2], "includesElement__covalent_radius_bragg": [170.0, 67.0], "includesElement__electronegativity_allen": [6.113, 24.8], "includesElement__en_allen": [6.113, 24.8], "includesElement__metallic_radius": [174.0], "includesElement__metallic_radius_c12": [197.0], "includesElement__vdw_radius_batsanov": [240.0, 150.0], "includesElement__c6": [2163.0, 9.52], "includesElement__vdw_radius_truhlar": [231.0], "includesElement__thermal_conductivity": [0.028], "includesElement__is_monoisotopic": [true], "includesElement__vdw_radius_dreiding": [347.2], "includesElement__gas_basicity": [315.1], "includesElement__proton_affinity": [340.1], "includesElement__vdw_radius_bondi": [147.0], "includesElement__vdw_radius_rt": [146.0], "formula": ["Ca1F2"], "spacegroup": ["123"], "thermalConductivity": [5.76855], "icsd": ["51237"], "band_gap": [5.1414], "density": [3.050517], "density_atomic": [14.16659], "deprecated": [false], "efermi": [-0.2961487], "energy_above_hull": [0.2402515], "energy_per_atom": [-8.41212], "formation_energy_per_atom": [-3.983585], "homogeneous_poisson": [0.299], "is_gap_direct": [false], "is_magnetic": [false], "is_metal": [false], "is_stable": [false], "nelements": [2], "nsites": [3], "num_magnetic_sites": [0], "num_unique_magnetic_sites": [0], "theoretical": [true], "total_magnetization": [1.5e-06], "total_magnetization_normalized_formula_units": [1.5e-06], "total_magnetization_normalized_vol": [3.529431e-08], "uncorrected_energy_per_atom": [-5.618882], "universal_anisotropy": [4.12], "volume": [42.49977], "cbm": [4.6945], "vbm": [-0.4469]}