{"includesElement": ["", "Cd", "S"], "includesElement___series_id": [8, 1], "includesElement__abundance_crust": [0.15, 350.0], "includesElement__atomic_number": [48, 16], "includesElement__atomic_radius": [155.0, 100.0], "includesElement__atomic_radius_rahm": [238.0, 214.0], "includesElement__atomic_volume": [13.1, 15.5], "includesElement__atomic_weight": [112.414, 32.06], "includesElement__covalent_radius_cordero": [144.0, 105.0], "includesElement__covalent_radius_pyykko": [136.0, 103.0], "includesElement__covalent_radius_pyykko_double": [144.0, 94.0], "includesElement__density": [8.69, 2.07], "includesElement__dipole_polarizability": [46.0, 19.4], "includesElement__dipole_polarizability_unc": [2.0, 0.1], "includesElement__discovery_year": [1817], "includesElement__electronegativity_allred-rochow": [0.000235186, 0.0005137148], "includesElement__electronegativity_cottrell-sutton": [0.1788443, 0.2300274], "includesElement__electronegativity_ghosh": [0.1504066, 0.23596], "includesElement__electronegativity_gordy": [0.03198529, 0.05291262], "includesElement__electronegativity_mulliken": [4.496911, 6.218557], "includesElement__electronegativity_nagle": [0.6389612, 0.6762644], "includesElement__electronegativity_pauling": [1.69, 2.58], "includesElement__electronegativity_sanderson": [0.801562, 0.6397251], "includesElement__en_ghosh": [0.1504066, 0.23596], "includesElement__en_pauling": [1.69, 2.58], "includesElement__evaporation_heat": [59.1, 10.5], "includesElement__fusion_heat": [6.11, 1.23], "includesElement__glawe_number": [75, 96], "includesElement__group_id": [12, 16], "includesElement__heat_of_formation": [111.8, 277.17], "includesElement__is_radioactive": [false], "includesElement__lattice_constant": [2.98, 10.47], "includesElement__mendeleev_number": [78, 100], "includesElement__molar_heat_capacity": [26.02, 22.7], "includesElement__period": [5, 3], "includesElement__pettifor_number": [75, 94], "includesElement__specific_heat_capacity": [0.232, 0.708], "includesElement__vdw_radius": [218.0, 180.0], "includesElement__vdw_radius_alvarez": [249.0, 189.0], "includesElement__vdw_radius_mm3": [250.0, 215.0], "includesElement__vdw_radius_uff": [284.8, 403.5], "includesElement__abundance_sea": [0.00011, 905.0], "includesElement__atomic_weight_uncertainty": [0.004], "includesElement__c6_gb": [405.0, 140.0], "includesElement__covalent_radius_bragg": [160.0, 102.0], "includesElement__electronegativity_allen": [8.995, 15.31], "includesElement__en_allen": [8.995, 15.31], "includesElement__metallic_radius": [138.0, 104.0], "includesElement__metallic_radius_c12": [151.0, 127.0], "includesElement__thermal_conductivity": [96.9, 0.27], "includesElement__vdw_radius_batsanov": [220.0, 180.0], "includesElement__covalent_radius_pyykko_triple": [95.0], "includesElement__electron_affinity": [2.077104], "includesElement__c6": [134.0], "includesElement__vdw_radius_dreiding": [403.0], "includesElement__gas_basicity": [640.2], "includesElement__proton_affinity": [664.3], "includesElement__vdw_radius_bondi": [180.0], "includesElement__vdw_radius_rt": [181.0], "formula": ["Cd1S1"], "spacegroup": ["225"], "thermalConductivity": [5.70308], "icsd": ["108230"], "band_gap": [0.2793], "density": [5.747523], "density_atomic": [20.87056], "deprecated": [false], "efermi": [2.885394], "energy_above_hull": [0.1334067], "energy_per_atom": [-14.71271], "formation_energy_per_atom": [-0.6427207], "homogeneous_poisson": [0.297], "is_gap_direct": [false], "is_magnetic": [false], "is_metal": [false], "is_stable": [false], "nelements": [2], "nsites": [2], "num_magnetic_sites": [0], "num_unique_magnetic_sites": [0], "theoretical": [false], "total_magnetization": [0.0007917], "total_magnetization_normalized_formula_units": [0.0007917], "total_magnetization_normalized_vol": [1.896691e-05], "uncorrected_energy_per_atom": [-3.028603], "universal_anisotropy": [0.007], "volume": [41.74112], "cbm": [3.0048], "vbm": [2.7255]}