{"includesElement": ["", "Ni", "F"], "includesElement___series_id": [8, 6], "includesElement__abundance_crust": [84.0, 585.0], "includesElement__atomic_number": [28, 9], "includesElement__atomic_radius": [135.0, 50.0], "includesElement__atomic_radius_rahm": [229.0, 163.0], "includesElement__atomic_volume": [6.6, 17.1], "includesElement__atomic_weight": [58.6934, 18.9984], "includesElement__covalent_radius_cordero": [124.0, 57.0], "includesElement__covalent_radius_pyykko": [110.0, 64.0], "includesElement__covalent_radius_pyykko_double": [101.0, 59.0], "includesElement__covalent_radius_pyykko_triple": [101.0, 53.0], "includesElement__density": [8.9, 0.001553], "includesElement__dipole_polarizability": [49.0, 3.74], "includesElement__dipole_polarizability_unc": [3.0, 0.08], "includesElement__discovery_year": [1751, 1886], "includesElement__electron_affinity": [1.156, 3.40119], "includesElement__electronegativity_allred-rochow": [0.0003347107, 0.001269531], "includesElement__electronegativity_cottrell-sutton": [0.1918806, 0.2850439], "includesElement__electronegativity_ghosh": [0.1472068, 0.344443], "includesElement__electronegativity_gordy": [0.03681818, 0.08125], "includesElement__electronegativity_mulliken": [4.397939, 10.412], "includesElement__electronegativity_nagle": [0.588755, 1.232373], "includesElement__electronegativity_pauling": [1.91, 3.98], "includesElement__electronegativity_sanderson": [0.937704, 1.017681], "includesElement__en_ghosh": [0.1472068, 0.344443], "includesElement__en_pauling": [1.91, 3.98], "includesElement__evaporation_heat": [378.6, 6.54], "includesElement__fusion_heat": [17.61, 0.51], "includesElement__glawe_number": [69, 102], "includesElement__group_id": [10, 17], "includesElement__heat_of_formation": [430.1, 79.335], "includesElement__is_radioactive": [false], "includesElement__lattice_constant": [3.52], "includesElement__mendeleev_number": [67, 106], "includesElement__molar_heat_capacity": [26.07, 31.304], "includesElement__period": [4, 2], "includesElement__pettifor_number": [67, 102], "includesElement__specific_heat_capacity": [0.444, 0.824], "includesElement__vdw_radius": [197.0, 147.0], "includesElement__vdw_radius_alvarez": [240.0, 146.0], "includesElement__vdw_radius_mm3": [222.0, 171.0], "includesElement__vdw_radius_uff": [283.4, 336.4], "includesElement__abundance_sea": [0.00056, 1.3], "includesElement__atomic_weight_uncertainty": [0.0004, 6e-09], "includesElement__c6_gb": [393.0, 10.2], "includesElement__covalent_radius_bragg": [135.0, 67.0], "includesElement__electronegativity_allen": [11.13, 24.8], "includesElement__en_allen": [11.13, 24.8], "includesElement__metallic_radius": [115.0], "includesElement__metallic_radius_c12": [124.0], "includesElement__thermal_conductivity": [90.9, 0.028], "includesElement__vdw_radius_batsanov": [200.0, 150.0], "includesElement__c6": [373.0, 9.52], "includesElement__gas_basicity": [714.1, 315.1], "includesElement__proton_affinity": [737.0, 340.1], "includesElement__is_monoisotopic": [true], "includesElement__vdw_radius_dreiding": [347.2], "includesElement__vdw_radius_bondi": [147.0], "includesElement__vdw_radius_rt": [146.0], "formula": ["F4Ni2"], "spacegroup": ["136"], "thermalConductivity": [4.30782], "icsd": ["14145"], "band_gap": [4.9116], "density": [4.8582], "density_atomic": [11.01628], "deprecated": [false], "efermi": [0.401624], "energy_above_hull": [0.0], "energy_per_atom": [-8.308582], "formation_energy_per_atom": [-2.23224], "is_gap_direct": [true], "is_magnetic": [true], "is_metal": [false], "is_stable": [true], "nelements": [2], "nsites": [6], "num_magnetic_sites": [2], "num_unique_magnetic_sites": [1], "theoretical": [false], "total_magnetization": [4.00129], "total_magnetization_normalized_formula_units": [2.000645], "total_magnetization_normalized_vol": [0.06053602], "uncorrected_energy_per_atom": [-8.308582], "volume": [66.09768], "cbm": [4.9929], "e_electronic": [2.509402], "e_ionic": [2.694541], "e_total": [5.203943], "equilibrium_reaction_energy_per_atom": [-0.5251799], "n": [1.584109], "vbm": [0.0813]}