{"includesElement": ["", "Al", "Th"], "includesElement___series_id": [7, 10], "includesElement__abundance_crust": [82300.0, 9.6], "includesElement__atomic_number": [13, 90], "includesElement__atomic_radius": [125.0, 180.0], "includesElement__atomic_radius_rahm": [239.0, 288.0], "includesElement__atomic_volume": [10.0, 19.8], "includesElement__atomic_weight": [26.98154, 232.0377], "includesElement__covalent_radius_cordero": [121.0, 206.0], "includesElement__covalent_radius_pyykko": [126.0, 175.0], "includesElement__covalent_radius_pyykko_double": [113.0, 143.0], "includesElement__covalent_radius_pyykko_triple": [111.0, 136.0], "includesElement__density": [2.7, 11.7], "includesElement__dipole_polarizability": [57.8, 217.0], "includesElement__dipole_polarizability_unc": [1.0, 54.0], "includesElement__discovery_year": [1825, 1828], "includesElement__electron_affinity": [0.43283], "includesElement__electronegativity_allred-rochow": [0.0002204586, 0.0001028571], "includesElement__electronegativity_cottrell-sutton": [0.1666667, 0.1341641], "includesElement__electronegativity_ghosh": [0.150078, 0.10277], "includesElement__electronegativity_gordy": [0.02777778, 0.018], "includesElement__electronegativity_mulliken": [3.209299, 3.15335], "includesElement__electronegativity_nagle": [0.3730192, 0.2641598], "includesElement__electronegativity_pauling": [1.61, 1.3], "includesElement__electronegativity_sanderson": [0.2360927, 0.5557019], "includesElement__en_ghosh": [0.150078, 0.10277], "includesElement__en_pauling": [1.61, 1.3], "includesElement__evaporation_heat": [284.1, 513.7], "includesElement__fusion_heat": [10.75, 16.11], "includesElement__glawe_number": [78, 34], "includesElement__group_id": [13], "includesElement__heat_of_formation": [330.9, 602.0], "includesElement__is_radioactive": [false, true], "includesElement__lattice_constant": [4.05, 5.08], "includesElement__mendeleev_number": [82, 16], "includesElement__molar_heat_capacity": [24.2, 27.32], "includesElement__period": [3, 7], "includesElement__pettifor_number": [80, 47], "includesElement__specific_heat_capacity": [0.897, 0.118], "includesElement__vdw_radius": [184.0, 245.0], "includesElement__vdw_radius_alvarez": [225.0, 293.0], "includesElement__vdw_radius_mm3": [236.0, 274.0], "includesElement__vdw_radius_uff": [449.9, 339.6], "includesElement__abundance_sea": [0.002, 1e-06], "includesElement__atomic_weight_uncertainty": [7e-07, 0.0004], "includesElement__c6_gb": [520.0], "includesElement__covalent_radius_bragg": [135.0], "includesElement__electronegativity_allen": [9.539], "includesElement__en_allen": [9.539], "includesElement__metallic_radius": [125.0], "includesElement__metallic_radius_c12": [143.0], "includesElement__thermal_conductivity": [237.0], "includesElement__vdw_radius_batsanov": [210.0, 240.0], "includesElement__c6": [528.0], "includesElement__is_monoisotopic": [true], "includesElement__vdw_radius_dreiding": [439.0], "includesElement__vdw_radius_truhlar": [184.0], "formula": ["Al2Th2"], "spacegroup": ["63"], "thermalConductivity": [9.33101], "icsd": ["58179"], "band_gap": [0.0], "density": [7.974406], "density_atomic": [26.96829], "deprecated": [false], "efermi": [6.694268], "energy_above_hull": [0.01514516], "energy_per_atom": [-40.47438], "formation_energy_per_atom": [-0.3707026], "homogeneous_poisson": [0.277], "is_gap_direct": [false], "is_magnetic": [false], "is_metal": [true], "is_stable": [false], "nelements": [2], "nsites": [4], "num_magnetic_sites": [0], "num_unique_magnetic_sites": [0], "theoretical": [false], "total_magnetization": [0.8638731], "total_magnetization_normalized_formula_units": [0.4319365], "total_magnetization_normalized_vol": [0.008008231], "uncorrected_energy_per_atom": [-40.47438], "universal_anisotropy": [0.917], "volume": [107.8732]}