{"includesElement": ["", "Mg", "Rh"], "includesElement___series_id": [4, 8], "includesElement__abundance_crust": [23300.0, 0.001], "includesElement__atomic_number": [12, 45], "includesElement__atomic_radius": [150.0, 135.0], "includesElement__atomic_radius_rahm": [240.0, 233.0], "includesElement__atomic_volume": [14.0, 8.3], "includesElement__atomic_weight": [24.305, 102.9055], "includesElement__covalent_radius_cordero": [141.0, 142.0], "includesElement__covalent_radius_pyykko": [139.0, 125.0], "includesElement__covalent_radius_pyykko_double": [132.0, 110.0], "includesElement__covalent_radius_pyykko_triple": [127.0, 106.0], "includesElement__density": [1.74, 12.4], "includesElement__dipole_polarizability": [71.2, 66.0], "includesElement__dipole_polarizability_unc": [0.4, 10.0], "includesElement__discovery_year": [1808, 1803], "includesElement__electronegativity_allred-rochow": [0.0001475079, 0.0002176], "includesElement__electronegativity_cottrell-sutton": [0.1431908, 0.1649242], "includesElement__electronegativity_ghosh": [0.121644, 0.1408379], "includesElement__electronegativity_gordy": [0.0205036, 0.0272], "includesElement__electronegativity_mulliken": [3.823117, 4.29795], "includesElement__electronegativity_nagle": [0.3039835, 0.5147142], "includesElement__electronegativity_pauling": [1.31, 2.28], "includesElement__electronegativity_sanderson": [0.1524211, 0.9761915], "includesElement__en_ghosh": [0.121644, 0.1408379], "includesElement__en_pauling": [1.31, 2.28], "includesElement__evaporation_heat": [131.8, 494.0], "includesElement__fusion_heat": [9.2, 21.8], "includesElement__glawe_number": [73, 63], "includesElement__group_id": [2, 9], "includesElement__heat_of_formation": [147.1, 556.0], "includesElement__is_radioactive": [false], "includesElement__lattice_constant": [3.21, 3.8], "includesElement__mendeleev_number": [76, 64], "includesElement__molar_heat_capacity": [24.869, 24.98], "includesElement__period": [3, 5], "includesElement__pettifor_number": [73, 66], "includesElement__specific_heat_capacity": [1.023, 0.243], "includesElement__vdw_radius": [173.0, 210.0], "includesElement__vdw_radius_alvarez": [251.0, 244.0], "includesElement__vdw_radius_mm3": [243.0, 234.0], "includesElement__vdw_radius_uff": [302.1, 292.9], "includesElement__abundance_sea": [1290.0], "includesElement__c6_gb": [629.0, 708.0], "includesElement__covalent_radius_bragg": [142.0], "includesElement__electronegativity_allen": [7.646, 9.259], "includesElement__en_allen": [7.646, 9.259], "includesElement__metallic_radius": [136.0, 125.0], "includesElement__metallic_radius_c12": [160.0, 134.0], "includesElement__thermal_conductivity": [156.0, 150.0], "includesElement__vdw_radius_batsanov": [220.0, 200.0], "includesElement__c6": [626.0], "includesElement__gas_basicity": [797.3, 745.4], "includesElement__proton_affinity": [819.6, 768.0], "includesElement__vdw_radius_bondi": [173.0], "includesElement__electron_affinity": [1.137], "includesElement__atomic_weight_uncertainty": [2e-05], "includesElement__is_monoisotopic": [true], "formula": ["Mg2Rh1"], "spacegroup": ["139"], "thermalConductivity": [10.5141], "icsd": ["54254"], "band_gap": [0.0], "density": [4.947735], "density_atomic": [16.95034], "deprecated": [false], "efermi": [4.937513], "energy_above_hull": [0.0], "energy_per_atom": [-3.943587], "formation_energy_per_atom": [-0.4018376], "homogeneous_poisson": [0.224], "is_gap_direct": [false], "is_magnetic": [false], "is_metal": [true], "is_stable": [true], "nelements": [2], "nsites": [3], "num_magnetic_sites": [0], "num_unique_magnetic_sites": [0], "theoretical": [false], "total_magnetization": [3e-07], "total_magnetization_normalized_formula_units": [3e-07], "total_magnetization_normalized_vol": [5.899586e-09], "uncorrected_energy_per_atom": [-11.25079], "universal_anisotropy": [1.91], "volume": [50.85103], "equilibrium_reaction_energy_per_atom": [-0.02112075]}