{"includesElement": ["", "O", "In"], "includesElement___series_id": [1, 7], "includesElement__abundance_crust": [461000.0, 0.25], "includesElement__atomic_number": [8, 49], "includesElement__atomic_radius": [60.0, 155.0], "includesElement__atomic_radius_rahm": [171.0, 246.0], "includesElement__atomic_volume": [14.0, 15.7], "includesElement__atomic_weight": [15.999, 114.818], "includesElement__covalent_radius_cordero": [66.0, 142.0], "includesElement__covalent_radius_pyykko": [63.0, 142.0], "includesElement__covalent_radius_pyykko_double": [57.0, 136.0], "includesElement__covalent_radius_pyykko_triple": [53.0, 146.0], "includesElement__density": [0.001308, 7.31], "includesElement__dipole_polarizability": [5.3, 65.0], "includesElement__dipole_polarizability_unc": [0.2, 4.0], "includesElement__discovery_year": [1774, 1863], "includesElement__electron_affinity": [1.461113, 0.3], "includesElement__electronegativity_allred-rochow": [0.001146384, 0.0002479667], "includesElement__electronegativity_cottrell-sutton": [0.2687419, 0.1876467], "includesElement__electronegativity_ghosh": [0.304575, 0.16423], "includesElement__electronegativity_gordy": [0.07222222, 0.03521127], "includesElement__electronegativity_mulliken": [7.539584, 3.043178], "includesElement__electronegativity_nagle": [1.042218, 0.3587038], "includesElement__electronegativity_pauling": [3.44, 1.78], "includesElement__electronegativity_sanderson": [0.9416494, 0.7172747], "includesElement__en_ghosh": [0.304575, 0.16423], "includesElement__en_pauling": [3.44, 1.78], "includesElement__glawe_number": [97, 80], "includesElement__group_id": [16, 13], "includesElement__heat_of_formation": [249.229, 243.0], "includesElement__is_radioactive": [false], "includesElement__lattice_constant": [6.83, 4.59], "includesElement__mendeleev_number": [99, 84], "includesElement__molar_heat_capacity": [29.378, 26.74], "includesElement__period": [2, 5], "includesElement__pettifor_number": [101, 79], "includesElement__specific_heat_capacity": [0.918, 0.233], "includesElement__vdw_radius": [152.0, 193.0], "includesElement__vdw_radius_alvarez": [150.0, 243.0], "includesElement__vdw_radius_mm3": [182.0, 264.0], "includesElement__vdw_radius_uff": [350.0, 446.3], "includesElement__abundance_sea": [857000.0, 0.02], "includesElement__c6_gb": [16.7, 643.0], "includesElement__covalent_radius_bragg": [65.0], "includesElement__electronegativity_allen": [21.36, 9.793], "includesElement__en_allen": [21.36, 9.793], "includesElement__thermal_conductivity": [0.027, 81.8], "includesElement__vdw_radius_batsanov": [155.0, 220.0], "includesElement__c6": [15.6, 779.0], "includesElement__vdw_radius_dreiding": [340.46, 459.0], "includesElement__gas_basicity": [459.6], "includesElement__proton_affinity": [485.2], "includesElement__vdw_radius_bondi": [152.0, 193.0], "includesElement__vdw_radius_rt": [158.0], "includesElement__evaporation_heat": [225.1], "includesElement__fusion_heat": [3.24], "includesElement__atomic_weight_uncertainty": [0.001], "includesElement__metallic_radius": [142.0], "includesElement__metallic_radius_c12": [158.0], "formula": ["In16O24"], "spacegroup": ["206"], "thermalConductivity": [1.63955], "icsd": ["14387"], "band_gap": [0.9289], "density": [6.998712], "density_atomic": [13.17449], "deprecated": [false], "efermi": [5.008934], "energy_above_hull": [0.0], "energy_per_atom": [-14.47132], "formation_energy_per_atom": [-1.863491], "homogeneous_poisson": [0.325], "is_gap_direct": [false], "is_magnetic": [false], "is_metal": [false], "is_stable": [true], "nelements": [2], "nsites": [40], "num_magnetic_sites": [0], "num_unique_magnetic_sites": [0], "theoretical": [false], "total_magnetization": [0.0], "total_magnetization_normalized_formula_units": [0.0], "total_magnetization_normalized_vol": [0.0], "uncorrected_energy_per_atom": [-14.47132], "universal_anisotropy": [0.0], "volume": [526.9797], "cbm": [5.8419], "e_electronic": [4.901521], "e_ionic": [7.408228], "e_total": [12.30975], "equilibrium_reaction_energy_per_atom": [-1.863491], "n": [2.213938], "vbm": [4.913]}