{"includesElement": ["", "Mg", "P"], "includesElement___series_id": [4, 1], "includesElement__abundance_crust": [23300.0, 1050.0], "includesElement__atomic_number": [12, 15], "includesElement__atomic_radius": [150.0, 100.0], "includesElement__atomic_radius_rahm": [240.0, 223.0], "includesElement__atomic_volume": [14.0, 17.0], "includesElement__atomic_weight": [24.305, 30.97376], "includesElement__covalent_radius_cordero": [141.0, 107.0], "includesElement__covalent_radius_pyykko": [139.0, 111.0], "includesElement__covalent_radius_pyykko_double": [132.0, 102.0], "includesElement__covalent_radius_pyykko_triple": [127.0, 94.0], "includesElement__density": [1.74, 1.823], "includesElement__dipole_polarizability": [71.2, 25.0], "includesElement__dipole_polarizability_unc": [0.4, 1.0], "includesElement__discovery_year": [1808, 1669], "includesElement__electronegativity_allred-rochow": [0.0001475079, 0.0003895788], "includesElement__electronegativity_cottrell-sutton": [0.1431908, 0.2079501], "includesElement__electronegativity_ghosh": [0.121644, 0.206931], "includesElement__electronegativity_gordy": [0.0205036, 0.04324324], "includesElement__electronegativity_mulliken": [3.823117, 5.616646], "includesElement__electronegativity_nagle": [0.3039835, 0.5848035], "includesElement__electronegativity_pauling": [1.31, 2.19], "includesElement__electronegativity_sanderson": [0.1524211, 0.4510269], "includesElement__en_ghosh": [0.121644, 0.206931], "includesElement__en_pauling": [1.31, 2.19], "includesElement__evaporation_heat": [131.8, 49.8], "includesElement__fusion_heat": [9.2, 2.51], "includesElement__glawe_number": [73, 89], "includesElement__group_id": [2, 15], "includesElement__heat_of_formation": [147.1, 316.5], "includesElement__is_radioactive": [false], "includesElement__lattice_constant": [3.21, 7.17], "includesElement__mendeleev_number": [76, 94], "includesElement__molar_heat_capacity": [24.869, 23.824], "includesElement__period": [3], "includesElement__pettifor_number": [73, 90], "includesElement__specific_heat_capacity": [1.023, 0.769], "includesElement__vdw_radius": [173.0, 180.0], "includesElement__vdw_radius_alvarez": [251.0, 190.0], "includesElement__vdw_radius_mm3": [243.0, 222.0], "includesElement__vdw_radius_uff": [302.1, 414.7], "includesElement__abundance_sea": [1290.0, 0.06], "includesElement__c6_gb": [629.0, 187.0], "includesElement__covalent_radius_bragg": [142.0], "includesElement__electronegativity_allen": [7.646, 13.33], "includesElement__en_allen": [7.646, 13.33], "includesElement__metallic_radius": [136.0, 110.0], "includesElement__metallic_radius_c12": [160.0, 128.0], "includesElement__thermal_conductivity": [156.0], "includesElement__vdw_radius_batsanov": [220.0, 195.0], "includesElement__c6": [626.0, 185.0], "includesElement__gas_basicity": [797.3, 604.8], "includesElement__proton_affinity": [819.6, 626.8], "includesElement__vdw_radius_bondi": [173.0, 180.0], "includesElement__electron_affinity": [0.746607], "includesElement__atomic_weight_uncertainty": [5e-09], "includesElement__is_monoisotopic": [true], "includesElement__vdw_radius_dreiding": [415.0], "formula": ["Mg24P16"], "spacegroup": ["206"], "thermalConductivity": [1.79295], "icsd": ["26875"], "band_gap": [1.6068], "density": [2.068073], "density_atomic": [21.65731], "deprecated": [false], "efermi": [2.956639], "energy_above_hull": [0.0], "energy_per_atom": [-3.792178], "formation_energy_per_atom": [-0.6477065], "is_gap_direct": [true], "is_magnetic": [false], "is_metal": [false], "is_stable": [true], "nelements": [2], "nsites": [40], "num_magnetic_sites": [0], "num_unique_magnetic_sites": [0], "theoretical": [false], "total_magnetization": [0.0], "total_magnetization_normalized_formula_units": [0.0], "total_magnetization_normalized_vol": [0.0], "uncorrected_energy_per_atom": [-6.907291], "volume": [866.2922], "cbm": [4.4929], "e_electronic": [7.318551], "e_ionic": [5.484225], "e_total": [12.80278], "equilibrium_reaction_energy_per_atom": [-0.49854], "n": [2.705282], "vbm": [2.8861]}