{"includesElement": ["", "P", "Dy"], "includesElement___series_id": [1, 9], "includesElement__abundance_crust": [1050.0, 5.2], "includesElement__atomic_number": [15, 66], "includesElement__atomic_radius": [100.0, 175.0], "includesElement__atomic_radius_rahm": [223.0, 275.0], "includesElement__atomic_volume": [17.0, 19.0], "includesElement__atomic_weight": [30.97376, 162.5], "includesElement__covalent_radius_cordero": [107.0, 192.0], "includesElement__covalent_radius_pyykko": [111.0, 167.0], "includesElement__covalent_radius_pyykko_double": [102.0, 133.0], "includesElement__covalent_radius_pyykko_triple": [94.0], "includesElement__density": [1.823, 8.55], "includesElement__dipole_polarizability": [25.0, 163.0], "includesElement__dipole_polarizability_unc": [1.0, 15.0], "includesElement__discovery_year": [1669, 1886], "includesElement__electron_affinity": [0.746607, 0.352], "includesElement__electronegativity_allred-rochow": [0.0003895788, 0.0001021908], "includesElement__electronegativity_cottrell-sutton": [0.2079501, 0.1306364], "includesElement__electronegativity_ghosh": [0.206931, 0.20333], "includesElement__electronegativity_gordy": [0.04324324, 0.01706587], "includesElement__electronegativity_mulliken": [5.616646, 3.145525], "includesElement__electronegativity_nagle": [0.5848035, 0.4191131], "includesElement__electronegativity_pauling": [2.19, 1.22], "includesElement__electronegativity_sanderson": [0.4510269, 0.5297338], "includesElement__en_ghosh": [0.206931, 0.20333], "includesElement__en_pauling": [2.19, 1.22], "includesElement__evaporation_heat": [49.8, 291.0], "includesElement__fusion_heat": [2.51], "includesElement__glawe_number": [89, 24], "includesElement__group_id": [15], "includesElement__heat_of_formation": [316.5, 290.4], "includesElement__is_radioactive": [false], "includesElement__lattice_constant": [7.17, 3.59], "includesElement__mendeleev_number": [94, 31], "includesElement__molar_heat_capacity": [23.824, 28.16], "includesElement__period": [3, 6], "includesElement__pettifor_number": [90, 25], "includesElement__specific_heat_capacity": [0.769, 0.173], "includesElement__vdw_radius": [180.0, 231.0], "includesElement__vdw_radius_alvarez": [190.0, 287.0], "includesElement__vdw_radius_mm3": [222.0, 290.0], "includesElement__vdw_radius_uff": [414.7, 342.8], "includesElement__abundance_sea": [0.06, 9.1e-07], "includesElement__atomic_weight_uncertainty": [5e-09, 0.001], "includesElement__c6_gb": [187.0, 2430.0], "includesElement__electronegativity_allen": [13.33], "includesElement__en_allen": [13.33], "includesElement__metallic_radius": [110.0], "includesElement__metallic_radius_c12": [128.0], "includesElement__vdw_radius_batsanov": [195.0], "includesElement__c6": [185.0], "includesElement__is_monoisotopic": [true], "includesElement__vdw_radius_dreiding": [415.0], "includesElement__gas_basicity": [604.8], "includesElement__proton_affinity": [626.8], "includesElement__vdw_radius_bondi": [180.0], "includesElement__thermal_conductivity": [10.7], "formula": ["Dy1P1"], "spacegroup": ["225"], "thermalConductivity": [20.3293], "icsd": ["187518"], "band_gap": [0.0], "density": [7.071746], "density_atomic": [22.71509], "deprecated": [false], "efermi": [4.607009], "energy_above_hull": [0.0], "energy_per_atom": [-22.34831], "formation_energy_per_atom": [-1.856366], "homogeneous_poisson": [0.218], "is_gap_direct": [false], "is_magnetic": [false], "is_metal": [true], "is_stable": [true], "nelements": [2], "nsites": [2], "num_magnetic_sites": [0], "num_unique_magnetic_sites": [0], "theoretical": [false], "total_magnetization": [5e-07], "total_magnetization_normalized_formula_units": [5e-07], "total_magnetization_normalized_vol": [1.10059e-08], "uncorrected_energy_per_atom": [-22.34831], "universal_anisotropy": [0.553], "volume": [45.43019], "equilibrium_reaction_energy_per_atom": [-1.474131]}