{"includesElement": ["", "Tl", "Tb"], "includesElement___series_id": [7, 9], "includesElement__abundance_crust": [0.85, 1.2], "includesElement__atomic_number": [81, 65], "includesElement__atomic_radius": [190.0, 175.0], "includesElement__atomic_radius_rahm": [242.0, 276.0], "includesElement__atomic_volume": [17.2, 19.2], "includesElement__atomic_weight": [204.38, 158.9254], "includesElement__covalent_radius_cordero": [145.0, 194.0], "includesElement__covalent_radius_pyykko": [144.0, 168.0], "includesElement__covalent_radius_pyykko_double": [142.0, 135.0], "includesElement__covalent_radius_pyykko_triple": [150.0], "includesElement__density": [11.8, 8.23], "includesElement__dipole_polarizability": [50.0, 170.0], "includesElement__dipole_polarizability_unc": [2.0, 20.0], "includesElement__discovery_year": [1861, 1843], "includesElement__electron_affinity": [0.377, 1.165], "includesElement__electronegativity_allred-rochow": [0.0002411265, 0.0001009779], "includesElement__electronegativity_cottrell-sutton": [0.186339, 0.130247], "includesElement__electronegativity_ghosh": [0.173447, 0.198863], "includesElement__electronegativity_gordy": [0.03472222, 0.01696429], "includesElement__electronegativity_mulliken": [3.242643, 3.5144], "includesElement__electronegativity_nagle": [0.3914868, 0.4014652], "includesElement__electronegativity_pauling": [1.8], "includesElement__electronegativity_sanderson": [0.9245096, 0.5163695], "includesElement__en_ghosh": [0.173447, 0.198863], "includesElement__en_pauling": [1.8], "includesElement__evaporation_heat": [162.4, 389.0], "includesElement__fusion_heat": [4.31], "includesElement__glawe_number": [81, 25], "includesElement__group_id": [13], "includesElement__heat_of_formation": [182.2, 388.7], "includesElement__is_radioactive": [false], "includesElement__lattice_constant": [3.46, 3.6], "includesElement__mendeleev_number": [85, 29], "includesElement__molar_heat_capacity": [26.32, 28.91], "includesElement__period": [6], "includesElement__pettifor_number": [78, 26], "includesElement__specific_heat_capacity": [0.129, 0.182], "includesElement__vdw_radius": [196.0, 233.0], "includesElement__vdw_radius_alvarez": [247.0, 279.0], "includesElement__vdw_radius_mm3": [259.0, 270.0], "includesElement__vdw_radius_uff": [434.7, 345.1], "includesElement__abundance_sea": [1.9e-05, 1.4e-07], "includesElement__c6_gb": [509.0, 2590.0], "includesElement__covalent_radius_bragg": [190.0], "includesElement__metallic_radius": [144.0], "includesElement__metallic_radius_c12": [160.0], "includesElement__thermal_conductivity": [46.1, 11.1], "includesElement__vdw_radius_batsanov": [220.0], "includesElement__vdw_radius_bondi": [196.0], "includesElement__atomic_weight_uncertainty": [2e-05], "includesElement__is_monoisotopic": [true], "formula": ["Tb1Tl3"], "spacegroup": ["221"], "thermalConductivity": [0.665623], "icsd": ["106130"], "band_gap": [0.0], "density": [12.17577], "density_atomic": [26.32403], "deprecated": [false], "efermi": [6.243437], "energy_above_hull": [0.0], "energy_per_atom": [-3.180933], "formation_energy_per_atom": [-0.2428627], "is_gap_direct": [false], "is_magnetic": [false], "is_metal": [true], "is_stable": [true], "nelements": [2], "nsites": [4], "num_magnetic_sites": [0], "num_unique_magnetic_sites": [0], "theoretical": [false], "total_magnetization": [2e-07], "total_magnetization_normalized_formula_units": [2e-07], "total_magnetization_normalized_vol": [1.899405e-09], "uncorrected_energy_per_atom": [-48.00607], "volume": [105.2961], "equilibrium_reaction_energy_per_atom": [-0.04767674]}