{"includesElement": ["", "Ti", "Pd"], "includesElement___series_id": [8], "includesElement__abundance_crust": [5650.0, 0.015], "includesElement__atomic_number": [22, 46], "includesElement__atomic_radius": [140.0], "includesElement__atomic_radius_rahm": [257.0, 215.0], "includesElement__atomic_volume": [10.6, 8.9], "includesElement__atomic_weight": [47.867, 106.42], "includesElement__covalent_radius_cordero": [160.0, 139.0], "includesElement__covalent_radius_pyykko": [136.0, 120.0], "includesElement__covalent_radius_pyykko_double": [117.0], "includesElement__covalent_radius_pyykko_triple": [108.0, 112.0], "includesElement__density": [4.506, 12.0], "includesElement__dipole_polarizability": [100.0, 26.14], "includesElement__dipole_polarizability_unc": [10.0, 0.1], "includesElement__discovery_year": [1791, 1803], "includesElement__electron_affinity": [0.079, 0.562], "includesElement__electronegativity_allred-rochow": [0.0001703071, 0.0004756944], "includesElement__electronegativity_cottrell-sutton": [0.1521899, 0.2389212], "includesElement__electronegativity_ghosh": [0.1233637, 0.1440276], "includesElement__electronegativity_gordy": [0.02316176, 0.05708333], "includesElement__electronegativity_mulliken": [3.45356, 4.44943], "includesElement__electronegativity_nagle": [0.3419952, 0.7259357], "includesElement__electronegativity_pauling": [1.54, 2.2], "includesElement__electronegativity_sanderson": [0.4055462, 1.124263], "includesElement__en_ghosh": [0.1233637, 0.1440276], "includesElement__en_pauling": [1.54, 2.2], "includesElement__evaporation_heat": [422.6, 372.4], "includesElement__fusion_heat": [18.8, 17.24], "includesElement__glawe_number": [51, 65], "includesElement__group_id": [4, 10], "includesElement__heat_of_formation": [473.0, 376.6], "includesElement__is_radioactive": [false], "includesElement__lattice_constant": [2.95, 3.89], "includesElement__mendeleev_number": [43, 68], "includesElement__molar_heat_capacity": [25.06, 25.98], "includesElement__period": [4, 5], "includesElement__pettifor_number": [51, 69], "includesElement__specific_heat_capacity": [0.523, 0.246], "includesElement__vdw_radius": [211.0, 210.0], "includesElement__vdw_radius_alvarez": [246.0, 215.0], "includesElement__vdw_radius_mm3": [239.0, 237.0], "includesElement__vdw_radius_uff": [317.5, 289.9], "includesElement__abundance_sea": [0.001], "includesElement__atomic_weight_uncertainty": [0.001, 0.01], "includesElement__c6_gb": [1200.0, 628.0], "includesElement__covalent_radius_bragg": [140.0], "includesElement__electronegativity_allen": [8.17, 9.402], "includesElement__en_allen": [8.17, 9.402], "includesElement__metallic_radius": [132.0, 128.0], "includesElement__metallic_radius_c12": [147.0, 137.0], "includesElement__thermal_conductivity": [21.9, 71.8], "includesElement__vdw_radius_batsanov": [215.0, 205.0], "includesElement__c6": [1044.0], "includesElement__gas_basicity": [853.7, 673.4], "includesElement__proton_affinity": [876.0, 696.0], "formula": ["Pd1Ti1"], "spacegroup": ["221"], "thermalConductivity": [1.40112], "icsd": ["105721"], "band_gap": [0.0], "density": [7.998692], "density_atomic": [16.01509], "deprecated": [false], "efermi": [6.116027], "energy_above_hull": [0.07338961], "energy_per_atom": [-18.42974], "formation_energy_per_atom": [-0.4806348], "homogeneous_poisson": [0.44], "is_gap_direct": [false], "is_magnetic": [false], "is_metal": [true], "is_stable": [false], "nelements": [2], "nsites": [2], "num_magnetic_sites": [0], "num_unique_magnetic_sites": [0], "theoretical": [false], "total_magnetization": [0.038236], "total_magnetization_normalized_formula_units": [0.038236], "total_magnetization_normalized_vol": [0.001193749], "uncorrected_energy_per_atom": [-7.011218], "universal_anisotropy": [16.731], "volume": [32.03018]}