{"includesElement": ["", "Al", "Zr"], "includesElement___series_id": [7, 8], "includesElement__abundance_crust": [82300.0, 165.0], "includesElement__atomic_number": [13, 40], "includesElement__atomic_radius": [125.0, 155.0], "includesElement__atomic_radius_rahm": [239.0, 269.0], "includesElement__atomic_volume": [10.0, 14.1], "includesElement__atomic_weight": [26.98154, 91.224], "includesElement__covalent_radius_cordero": [121.0, 175.0], "includesElement__covalent_radius_pyykko": [126.0, 154.0], "includesElement__covalent_radius_pyykko_double": [113.0, 127.0], "includesElement__covalent_radius_pyykko_triple": [111.0, 121.0], "includesElement__density": [2.7, 6.52], "includesElement__dipole_polarizability": [57.8, 112.0], "includesElement__dipole_polarizability_unc": [1.0, 13.0], "includesElement__discovery_year": [1825, 1789], "includesElement__electron_affinity": [0.43283, 0.426], "includesElement__electronegativity_allred-rochow": [0.0002204586, 0.0001328217], "includesElement__electronegativity_cottrell-sutton": [0.1666667, 0.1430194], "includesElement__electronegativity_ghosh": [0.150078, 0.1248887], "includesElement__electronegativity_gordy": [0.02777778, 0.02045455], "includesElement__electronegativity_mulliken": [3.209299, 3.52995], "includesElement__electronegativity_nagle": [0.3730192, 0.3293169], "includesElement__electronegativity_pauling": [1.61, 1.33], "includesElement__electronegativity_sanderson": [0.2360927, 0.4744467], "includesElement__en_ghosh": [0.150078, 0.1248887], "includesElement__en_pauling": [1.61, 1.33], "includesElement__evaporation_heat": [284.1, 567.0], "includesElement__fusion_heat": [10.75, 19.2], "includesElement__glawe_number": [78, 49], "includesElement__group_id": [13, 4], "includesElement__heat_of_formation": [330.9, 610.0], "includesElement__is_radioactive": [false], "includesElement__lattice_constant": [4.05, 3.23], "includesElement__mendeleev_number": [82, 44], "includesElement__molar_heat_capacity": [24.2, 25.36], "includesElement__period": [3, 5], "includesElement__pettifor_number": [80, 49], "includesElement__specific_heat_capacity": [0.897, 0.278], "includesElement__vdw_radius": [184.0, 223.0], "includesElement__vdw_radius_alvarez": [225.0, 252.0], "includesElement__vdw_radius_mm3": [236.0, 254.0], "includesElement__vdw_radius_uff": [449.9, 312.4], "includesElement__abundance_sea": [0.002, 3e-05], "includesElement__atomic_weight_uncertainty": [7e-07, 0.002], "includesElement__c6_gb": [520.0, 1360.0], "includesElement__covalent_radius_bragg": [135.0], "includesElement__electronegativity_allen": [9.539, 7.808], "includesElement__en_allen": [9.539, 7.808], "includesElement__metallic_radius": [125.0, 145.0], "includesElement__metallic_radius_c12": [143.0, 160.0], "includesElement__thermal_conductivity": [237.0, 22.7], "includesElement__vdw_radius_batsanov": [210.0, 230.0], "includesElement__c6": [528.0], "includesElement__is_monoisotopic": [true], "includesElement__vdw_radius_dreiding": [439.0], "includesElement__vdw_radius_truhlar": [184.0], "formula": ["Al2Zr4"], "spacegroup": ["194"], "thermalConductivity": [10.4569], "icsd": ["58228"], "band_gap": [0.0], "density": [5.635924], "density_atomic": [20.56841], "deprecated": [false], "efermi": [4.872012], "energy_above_hull": [0.01447969], "energy_per_atom": [-17.80809], "formation_energy_per_atom": [-0.3975308], "homogeneous_poisson": [0.278], "is_gap_direct": [false], "is_magnetic": [false], "is_metal": [true], "is_stable": [false], "nelements": [2], "nsites": [6], "num_magnetic_sites": [0], "num_unique_magnetic_sites": [0], "theoretical": [false], "total_magnetization": [0.0002214], "total_magnetization_normalized_formula_units": [0.0001107], "total_magnetization_normalized_vol": [1.794014e-06], "uncorrected_energy_per_atom": [-17.80809], "universal_anisotropy": [0.158], "volume": [123.4104]}