{"includesElement": ["", "Ni", "B"], "includesElement___series_id": [8, 5], "includesElement__abundance_crust": [84.0, 10.0], "includesElement__atomic_number": [28, 5], "includesElement__atomic_radius": [135.0, 85.0], "includesElement__atomic_radius_rahm": [229.0, 205.0], "includesElement__atomic_volume": [6.6, 4.6], "includesElement__atomic_weight": [58.6934, 10.81], "includesElement__covalent_radius_cordero": [124.0, 84.0], "includesElement__covalent_radius_pyykko": [110.0, 85.0], "includesElement__covalent_radius_pyykko_double": [101.0, 78.0], "includesElement__covalent_radius_pyykko_triple": [101.0, 73.0], "includesElement__density": [8.9, 2.34], "includesElement__dipole_polarizability": [49.0, 20.5], "includesElement__dipole_polarizability_unc": [3.0, 0.1], "includesElement__discovery_year": [1751, 1808], "includesElement__electron_affinity": [1.156, 0.279723], "includesElement__electronegativity_allred-rochow": [0.0003347107, 0.0003598616], "includesElement__electronegativity_cottrell-sutton": [0.1918806, 0.1748949], "includesElement__electronegativity_ghosh": [0.1472068, 0.184886], "includesElement__electronegativity_gordy": [0.03681818, 0.03058824], "includesElement__electronegativity_mulliken": [4.397939, 4.288871], "includesElement__electronegativity_nagle": [0.588755, 0.5269739], "includesElement__electronegativity_pauling": [1.91, 2.04], "includesElement__electronegativity_sanderson": [0.937704, 0.2546274], "includesElement__en_ghosh": [0.1472068, 0.184886], "includesElement__en_pauling": [1.91, 2.04], "includesElement__evaporation_heat": [378.6, 504.5], "includesElement__fusion_heat": [17.61, 23.6], "includesElement__glawe_number": [69, 86], "includesElement__group_id": [10, 13], "includesElement__heat_of_formation": [430.1, 565.0], "includesElement__is_radioactive": [false], "includesElement__lattice_constant": [3.52, 8.73], "includesElement__mendeleev_number": [67, 81], "includesElement__molar_heat_capacity": [26.07, 11.087], "includesElement__period": [4, 2], "includesElement__pettifor_number": [67, 86], "includesElement__specific_heat_capacity": [0.444, 1.026], "includesElement__vdw_radius": [197.0, 192.0], "includesElement__vdw_radius_alvarez": [240.0, 191.0], "includesElement__vdw_radius_mm3": [222.0, 215.0], "includesElement__vdw_radius_uff": [283.4, 408.3], "includesElement__abundance_sea": [0.00056, 4.44], "includesElement__atomic_weight_uncertainty": [0.0004], "includesElement__c6_gb": [393.0, 99.2], "includesElement__covalent_radius_bragg": [135.0], "includesElement__electronegativity_allen": [11.13, 12.13], "includesElement__en_allen": [11.13, 12.13], "includesElement__metallic_radius": [115.0, 80.0], "includesElement__metallic_radius_c12": [124.0, 98.0], "includesElement__thermal_conductivity": [90.9, 27.4], "includesElement__vdw_radius_batsanov": [200.0, 180.0], "includesElement__c6": [373.0, 99.5], "includesElement__gas_basicity": [714.1], "includesElement__proton_affinity": [737.0], "includesElement__vdw_radius_dreiding": [402.0], "includesElement__vdw_radius_truhlar": [192.0], "formula": ["B4Ni12"], "spacegroup": ["62"], "thermalConductivity": [3.21242], "icsd": ["106927"], "band_gap": [0.0], "density": [8.484222], "density_atomic": [9.144626], "deprecated": [false], "efermi": [8.206227], "energy_above_hull": [0.0], "energy_per_atom": [-11.05948], "formation_energy_per_atom": [-0.2366033], "homogeneous_poisson": [0.333], "is_gap_direct": [false], "is_magnetic": [false], "is_metal": [true], "is_stable": [true], "nelements": [2], "nsites": [16], "num_magnetic_sites": [0], "num_unique_magnetic_sites": [0], "theoretical": [false], "total_magnetization": [1e-07], "total_magnetization_normalized_formula_units": [2.5e-08], "total_magnetization_normalized_vol": [6.834616e-10], "uncorrected_energy_per_atom": [-11.05948], "universal_anisotropy": [0.54], "volume": [146.314], "equilibrium_reaction_energy_per_atom": [-0.02461314]}