{"includesElement": ["", "Ga", "Zr"], "includesElement___series_id": [7, 8], "includesElement__abundance_crust": [19.0, 165.0], "includesElement__atomic_number": [31, 40], "includesElement__atomic_radius": [130.0, 155.0], "includesElement__atomic_radius_rahm": [233.0, 269.0], "includesElement__atomic_volume": [11.8, 14.1], "includesElement__atomic_weight": [69.723, 91.224], "includesElement__covalent_radius_cordero": [122.0, 175.0], "includesElement__covalent_radius_pyykko": [124.0, 154.0], "includesElement__covalent_radius_pyykko_double": [117.0, 127.0], "includesElement__covalent_radius_pyykko_triple": [121.0], "includesElement__density": [5.91, 6.52], "includesElement__dipole_polarizability": [50.0, 112.0], "includesElement__dipole_polarizability_unc": [3.0, 13.0], "includesElement__discovery_year": [1875, 1789], "includesElement__electron_affinity": [0.43, 0.426], "includesElement__electronegativity_allred-rochow": [0.0003251821, 0.0001328217], "includesElement__electronegativity_cottrell-sutton": [0.2008048, 0.1430194], "includesElement__electronegativity_ghosh": [0.1723773, 0.1248887], "includesElement__electronegativity_gordy": [0.04032258, 0.02045455], "includesElement__electronegativity_mulliken": [3.214651, 3.52995], "includesElement__electronegativity_nagle": [0.3914868, 0.3293169], "includesElement__electronegativity_pauling": [1.81, 1.33], "includesElement__electronegativity_sanderson": [0.720541, 0.4744467], "includesElement__en_ghosh": [0.1723773, 0.1248887], "includesElement__en_pauling": [1.81, 1.33], "includesElement__evaporation_heat": [270.3, 567.0], "includesElement__fusion_heat": [5.59, 19.2], "includesElement__glawe_number": [79, 49], "includesElement__group_id": [13, 4], "includesElement__heat_of_formation": [271.96, 610.0], "includesElement__is_radioactive": [false], "includesElement__lattice_constant": [4.51, 3.23], "includesElement__mendeleev_number": [83, 44], "includesElement__molar_heat_capacity": [26.03, 25.36], "includesElement__period": [4, 5], "includesElement__pettifor_number": [81, 49], "includesElement__specific_heat_capacity": [0.373, 0.278], "includesElement__vdw_radius": [187.0, 223.0], "includesElement__vdw_radius_alvarez": [232.0, 252.0], "includesElement__vdw_radius_mm3": [246.0, 254.0], "includesElement__vdw_radius_uff": [438.3, 312.4], "includesElement__abundance_sea": [3e-05], "includesElement__atomic_weight_uncertainty": [0.001, 0.002], "includesElement__c6_gb": [456.0, 1360.0], "includesElement__electronegativity_allen": [10.39, 7.808], "includesElement__en_allen": [10.39, 7.808], "includesElement__metallic_radius": [125.0, 145.0], "includesElement__metallic_radius_c12": [140.0, 160.0], "includesElement__thermal_conductivity": [28.1, 22.7], "includesElement__vdw_radius_batsanov": [210.0, 230.0], "includesElement__c6": [498.0], "includesElement__vdw_radius_dreiding": [439.0], "includesElement__vdw_radius_bondi": [187.0], "formula": ["Ga4Zr6"], "spacegroup": ["127"], "thermalConductivity": [7.08747], "icsd": ["104042"], "band_gap": [0.0], "density": [6.88669], "density_atomic": [19.92245], "deprecated": [false], "efermi": [3.930821], "energy_above_hull": [0.0], "energy_per_atom": [-18.84527], "formation_energy_per_atom": [-0.6182838], "homogeneous_poisson": [0.249], "is_gap_direct": [false], "is_magnetic": [false], "is_metal": [true], "is_stable": [true], "nelements": [2], "nsites": [10], "num_magnetic_sites": [0], "num_unique_magnetic_sites": [0], "theoretical": [false], "total_magnetization": [0.0016623], "total_magnetization_normalized_formula_units": [0.00083115], "total_magnetization_normalized_vol": [8.343855e-06], "uncorrected_energy_per_atom": [-18.84527], "universal_anisotropy": [0.377], "volume": [199.2245], "equilibrium_reaction_energy_per_atom": [-0.000573122]}