{"includesElement": ["", "Ta", "C"], "includesElement___series_id": [8, 1], "includesElement__abundance_crust": [2.0, 200.0], "includesElement__atomic_number": [73, 6], "includesElement__atomic_radius": [145.0, 70.0], "includesElement__atomic_radius_rahm": [258.0, 190.0], "includesElement__atomic_volume": [10.9, 5.3], "includesElement__atomic_weight": [180.9479, 12.011], "includesElement__covalent_radius_cordero": [170.0, 73.0], "includesElement__covalent_radius_pyykko": [146.0, 75.0], "includesElement__covalent_radius_pyykko_double": [126.0, 67.0], "includesElement__covalent_radius_pyykko_triple": [119.0, 60.0], "includesElement__density": [16.4, 2.2], "includesElement__dipole_polarizability": [74.0, 11.3], "includesElement__dipole_polarizability_unc": [20.0, 0.2], "includesElement__discovery_year": [1802], "includesElement__electron_affinity": [0.322, 1.262119], "includesElement__electronegativity_allred-rochow": [0.0001548133, 0.0005777778], "includesElement__electronegativity_cottrell-sutton": [0.1503421, 0.2081666], "includesElement__electronegativity_ghosh": [0.234581, 0.224776], "includesElement__electronegativity_gordy": [0.02260274, 0.04333333], "includesElement__electronegativity_mulliken": [3.935785, 6.261208], "includesElement__electronegativity_nagle": [0.4072985, 0.7073926], "includesElement__electronegativity_pauling": [1.5, 2.55], "includesElement__electronegativity_sanderson": [0.8358832, 0.427525], "includesElement__en_ghosh": [0.234581, 0.224776], "includesElement__en_pauling": [1.5, 2.55], "includesElement__evaporation_heat": [758.0], "includesElement__fusion_heat": [24.7], "includesElement__glawe_number": [52, 87], "includesElement__group_id": [5, 14], "includesElement__heat_of_formation": [782.0, 716.87], "includesElement__is_radioactive": [false], "includesElement__lattice_constant": [3.31, 3.57], "includesElement__mendeleev_number": [49, 87], "includesElement__molar_heat_capacity": [25.36, 8.517], "includesElement__period": [6, 2], "includesElement__pettifor_number": [53, 95], "includesElement__specific_heat_capacity": [0.14, 0.709], "includesElement__vdw_radius": [222.0, 170.0], "includesElement__vdw_radius_alvarez": [253.0, 177.0], "includesElement__vdw_radius_mm3": [243.0, 204.0], "includesElement__vdw_radius_uff": [317.0, 385.1], "includesElement__abundance_sea": [2e-06, 28.0], "includesElement__atomic_weight_uncertainty": [2e-05], "includesElement__c6_gb": [887.0, 47.9], "includesElement__electronegativity_allen": [7.93, 15.05], "includesElement__en_allen": [7.93, 15.05], "includesElement__metallic_radius": [134.0], "includesElement__metallic_radius_c12": [146.0, 86.0], "includesElement__thermal_conductivity": [57.5, 1.59], "includesElement__vdw_radius_batsanov": [220.0, 170.0], "includesElement__covalent_radius_bragg": [77.0], "includesElement__c6": [46.6], "includesElement__vdw_radius_dreiding": [389.83], "includesElement__vdw_radius_bondi": [170.0], "includesElement__vdw_radius_rt": [177.0], "formula": ["C1Ta1"], "spacegroup": ["225"], "thermalConductivity": [61.4198], "icsd": ["155163"], "band_gap": [0.0], "density": [14.37121], "density_atomic": [11.14782], "deprecated": [false], "efermi": [7.830896], "energy_above_hull": [0.0], "energy_per_atom": [-11.11855], "formation_energy_per_atom": [-0.5707546], "homogeneous_poisson": [0.27], "is_gap_direct": [false], "is_magnetic": [false], "is_metal": [true], "is_stable": [true], "nelements": [2], "nsites": [2], "num_magnetic_sites": [0], "num_unique_magnetic_sites": [0], "theoretical": [false], "total_magnetization": [1.2e-06], "total_magnetization_normalized_formula_units": [1.2e-06], "total_magnetization_normalized_vol": [5.38222e-08], "uncorrected_energy_per_atom": [-29.92899], "universal_anisotropy": [0.093], "volume": [22.29563], "equilibrium_reaction_energy_per_atom": [-0.1275007]}