{"includesElement": ["", "O", "Sr", "C"], "includesElement___series_id": [1, 4], "includesElement__abundance_crust": [461000.0, 370.0, 200.0], "includesElement__atomic_number": [8, 38, 6], "includesElement__atomic_radius": [60.0, 200.0, 70.0], "includesElement__atomic_radius_rahm": [171.0, 279.0, 190.0], "includesElement__atomic_volume": [14.0, 33.7, 5.3], "includesElement__atomic_weight": [15.999, 87.62, 12.011], "includesElement__covalent_radius_cordero": [66.0, 195.0, 73.0], "includesElement__covalent_radius_pyykko": [63.0, 185.0, 75.0], "includesElement__covalent_radius_pyykko_double": [57.0, 157.0, 67.0], "includesElement__covalent_radius_pyykko_triple": [53.0, 139.0, 60.0], "includesElement__density": [0.001308, 2.64, 2.2], "includesElement__dipole_polarizability": [5.3, 197.2, 11.3], "includesElement__dipole_polarizability_unc": [0.2], "includesElement__discovery_year": [1774, 1790], "includesElement__electron_affinity": [1.461113, 0.048, 1.262119], "includesElement__electronegativity_allred-rochow": [0.001146384, 8.327246e-05, 0.0005777778], "includesElement__electronegativity_cottrell-sutton": [0.2687419, 0.1241185, 0.2081666], "includesElement__electronegativity_ghosh": [0.304575, 0.1185082, 0.224776], "includesElement__electronegativity_gordy": [0.07222222, 0.01540541, 0.04333333], "includesElement__electronegativity_mulliken": [7.539584, 2.871434, 6.261208], "includesElement__electronegativity_nagle": [1.042218, 0.2164584, 0.7073926], "includesElement__electronegativity_pauling": [3.44, 0.95, 2.55], "includesElement__electronegativity_sanderson": [0.9416494, 0.2631786, 0.427525], "includesElement__en_ghosh": [0.304575, 0.1185082, 0.224776], "includesElement__en_pauling": [3.44, 0.95, 2.55], "includesElement__glawe_number": [97, 15, 87], "includesElement__group_id": [16, 2, 14], "includesElement__heat_of_formation": [249.229, 164.0, 716.87], "includesElement__is_radioactive": [false], "includesElement__lattice_constant": [6.83, 6.08, 3.57], "includesElement__mendeleev_number": [99, 8, 87], "includesElement__molar_heat_capacity": [29.378, 26.79, 8.517], "includesElement__period": [2, 5], "includesElement__pettifor_number": [101, 15, 95], "includesElement__specific_heat_capacity": [0.918, 0.306, 0.709], "includesElement__vdw_radius": [152.0, 249.0, 170.0], "includesElement__vdw_radius_alvarez": [150.0, 284.0, 177.0], "includesElement__vdw_radius_mm3": [182.0, 300.0, 204.0], "includesElement__vdw_radius_uff": [350.0, 364.1, 385.1], "includesElement__abundance_sea": [857000.0, 7.9, 28.0], "includesElement__c6_gb": [16.7, 3230.0, 47.9], "includesElement__covalent_radius_bragg": [65.0, 195.0, 77.0], "includesElement__electronegativity_allen": [21.36, 5.695, 15.05], "includesElement__en_allen": [21.36, 5.695, 15.05], "includesElement__thermal_conductivity": [0.027, 1.59], "includesElement__vdw_radius_batsanov": [155.0, 255.0, 170.0], "includesElement__c6": [15.6, 3175.0, 46.6], "includesElement__vdw_radius_dreiding": [340.46, 389.83], "includesElement__gas_basicity": [459.6], "includesElement__proton_affinity": [485.2], "includesElement__vdw_radius_bondi": [152.0, 170.0], "includesElement__vdw_radius_rt": [158.0, 177.0], "includesElement__evaporation_heat": [144.0], "includesElement__fusion_heat": [9.2], "includesElement__atomic_weight_uncertainty": [0.01], "includesElement__metallic_radius": [191.0], "includesElement__metallic_radius_c12": [215.0, 86.0], "includesElement__vdw_radius_truhlar": [249.0], "formula": ["C4O12Sr4"], "spacegroup": ["62"], "thermalConductivity": [4.93664], "icsd": ["27293"], "band_gap": [4.4416], "density": [3.794093], "density_atomic": [12.92238], "deprecated": [false], "efermi": [1.126844], "energy_above_hull": [0.0], "energy_per_atom": [-7.852421], "formation_energy_per_atom": [-2.696844], "homogeneous_poisson": [0.291], "is_gap_direct": [false], "is_magnetic": [false], "is_metal": [false], "is_stable": [true], "nelements": [3], "nsites": [20], "num_magnetic_sites": [0], "num_unique_magnetic_sites": [0], "theoretical": [false], "total_magnetization": [0.0], "total_magnetization_normalized_formula_units": [0.0], "total_magnetization_normalized_vol": [0.0], "uncorrected_energy_per_atom": [-11.04186], "universal_anisotropy": [0.401], "volume": [258.4476], "cbm": [5.4946], "e_electronic": [2.725649], "e_ionic": [5.380809], "e_total": [8.106458], "equilibrium_reaction_energy_per_atom": [-0.4074789], "n": [1.650954], "vbm": [1.053]}