{"includesElement": ["", "Tb", "H"], "includesElement___series_id": [9, 1], "includesElement__abundance_crust": [1.2, 1400.0], "includesElement__atomic_number": [65, 1], "includesElement__atomic_radius": [175.0, 25.0], "includesElement__atomic_radius_rahm": [276.0, 154.0], "includesElement__atomic_volume": [19.2, 14.1], "includesElement__atomic_weight": [158.9254, 1.008], "includesElement__covalent_radius_cordero": [194.0, 31.0], "includesElement__covalent_radius_pyykko": [168.0, 32.0], "includesElement__covalent_radius_pyykko_double": [135.0], "includesElement__density": [8.23, 8.2e-05], "includesElement__dipole_polarizability": [170.0, 4.50711], "includesElement__dipole_polarizability_unc": [20.0, 3e-05], "includesElement__discovery_year": [1843, 1766], "includesElement__electron_affinity": [1.165, 0.754195], "includesElement__electronegativity_allred-rochow": [0.0001009779, 0.0009765625], "includesElement__electronegativity_cottrell-sutton": [0.130247, 0.1767767], "includesElement__electronegativity_ghosh": [0.198863, 0.2638], "includesElement__electronegativity_gordy": [0.01696429, 0.03125], "includesElement__electronegativity_mulliken": [3.5144, 7.176315], "includesElement__electronegativity_nagle": [0.4014652, 0.6053882], "includesElement__electronegativity_sanderson": [0.5163695, 2.187771], "includesElement__en_ghosh": [0.198863, 0.2638], "includesElement__evaporation_heat": [389.0, 0.904], "includesElement__glawe_number": [25, 103], "includesElement__heat_of_formation": [388.7, 217.998], "includesElement__is_radioactive": [false], "includesElement__lattice_constant": [3.6, 3.75], "includesElement__mendeleev_number": [29, 105], "includesElement__molar_heat_capacity": [28.91, 28.836], "includesElement__period": [6, 1], "includesElement__pettifor_number": [26, 103], "includesElement__specific_heat_capacity": [0.182, 14.304], "includesElement__vdw_radius": [233.0, 110.0], "includesElement__vdw_radius_alvarez": [279.0, 120.0], "includesElement__vdw_radius_mm3": [270.0, 162.0], "includesElement__vdw_radius_uff": [345.1, 288.6], "includesElement__abundance_sea": [1.4e-07, 108000.0], "includesElement__atomic_weight_uncertainty": [2e-05], "includesElement__c6_gb": [2590.0, 6.51], "includesElement__thermal_conductivity": [11.1, 0.1815], "includesElement__is_monoisotopic": [true], "includesElement__electronegativity_pauling": [2.2], "includesElement__en_pauling": [2.2], "includesElement__fusion_heat": [0.117], "includesElement__group_id": [1], "includesElement__electronegativity_allen": [13.61], "includesElement__en_allen": [13.61], "includesElement__metallic_radius_c12": [78.0], "includesElement__c6": [6.499027], "includesElement__vdw_radius_dreiding": [319.5], "includesElement__vdw_radius_bondi": [120.0], "includesElement__vdw_radius_rt": [110.0], "formula": ["H2Tb1"], "spacegroup": ["225"], "thermalConductivity": [9.61757], "icsd": ["56175"], "band_gap": [0.0], "density": [7.513437], "density_atomic": [11.8565], "deprecated": [false], "efermi": [3.185208], "energy_above_hull": [0.0], "energy_per_atom": [-13.51252], "formation_energy_per_atom": [-0.8003036], "is_gap_direct": [false], "is_magnetic": [false], "is_metal": [true], "is_stable": [true], "nelements": [2], "nsites": [3], "num_magnetic_sites": [0], "num_unique_magnetic_sites": [0], "theoretical": [false], "total_magnetization": [2.32e-05], "total_magnetization_normalized_formula_units": [2.32e-05], "total_magnetization_normalized_vol": [6.522442e-07], "uncorrected_energy_per_atom": [-13.51252], "volume": [35.5695], "equilibrium_reaction_energy_per_atom": [-0.1583192]}