{"includesElement": ["", "Ru", "B"], "includesElement___series_id": [8, 5], "includesElement__abundance_crust": [0.001, 10.0], "includesElement__atomic_number": [44, 5], "includesElement__atomic_radius": [130.0, 85.0], "includesElement__atomic_radius_rahm": [237.0, 205.0], "includesElement__atomic_volume": [8.3, 4.6], "includesElement__atomic_weight": [101.07, 10.81], "includesElement__covalent_radius_cordero": [146.0, 84.0], "includesElement__covalent_radius_pyykko": [125.0, 85.0], "includesElement__covalent_radius_pyykko_double": [114.0, 78.0], "includesElement__covalent_radius_pyykko_triple": [103.0, 73.0], "includesElement__density": [12.1, 2.34], "includesElement__dipole_polarizability": [72.0, 20.5], "includesElement__dipole_polarizability_unc": [10.0, 0.1], "includesElement__discovery_year": [1844, 1808], "includesElement__electron_affinity": [1.05, 0.279723], "includesElement__electronegativity_allred-rochow": [0.000208, 0.0003598616], "includesElement__electronegativity_cottrell-sutton": [0.1612452, 0.1748949], "includesElement__electronegativity_ghosh": [0.1376494, 0.184886], "includesElement__electronegativity_gordy": [0.026, 0.03058824], "includesElement__electronegativity_mulliken": [4.20525, 4.288871], "includesElement__electronegativity_nagle": [0.4807499, 0.5269739], "includesElement__electronegativity_pauling": [2.2, 2.04], "includesElement__electronegativity_sanderson": [0.9579373, 0.2546274], "includesElement__en_ghosh": [0.1376494, 0.184886], "includesElement__en_pauling": [2.2, 2.04], "includesElement__fusion_heat": [25.5, 23.6], "includesElement__glawe_number": [61, 86], "includesElement__group_id": [8, 13], "includesElement__heat_of_formation": [650.6, 565.0], "includesElement__is_radioactive": [false], "includesElement__lattice_constant": [2.7, 8.73], "includesElement__mendeleev_number": [60, 81], "includesElement__molar_heat_capacity": [24.06, 11.087], "includesElement__period": [5, 2], "includesElement__pettifor_number": [63, 86], "includesElement__specific_heat_capacity": [0.238, 1.026], "includesElement__vdw_radius": [213.0, 192.0], "includesElement__vdw_radius_alvarez": [246.0, 191.0], "includesElement__vdw_radius_mm3": [234.0, 215.0], "includesElement__vdw_radius_uff": [296.3, 408.3], "includesElement__abundance_sea": [7e-07, 4.44], "includesElement__atomic_weight_uncertainty": [0.02], "includesElement__c6_gb": [809.0, 99.2], "includesElement__electronegativity_allen": [9.1, 12.13], "includesElement__en_allen": [9.1, 12.13], "includesElement__metallic_radius": [125.0, 80.0], "includesElement__metallic_radius_c12": [134.0, 98.0], "includesElement__thermal_conductivity": [117.0, 27.4], "includesElement__vdw_radius_batsanov": [205.0, 180.0], "includesElement__gas_basicity": [751.4], "includesElement__proton_affinity": [774.0], "includesElement__evaporation_heat": [504.5], "includesElement__c6": [99.5], "includesElement__vdw_radius_dreiding": [402.0], "includesElement__vdw_radius_truhlar": [192.0], "formula": ["B6Ru4"], "spacegroup": ["194"], "thermalConductivity": [19.8776], "icsd": ["23715"], "band_gap": [0.0], "density": [8.311512], "density_atomic": [9.372967], "deprecated": [false], "efermi": [8.433656], "energy_above_hull": [0.0], "energy_per_atom": [-14.93012], "formation_energy_per_atom": [-0.3524967], "is_gap_direct": [false], "is_magnetic": [false], "is_metal": [true], "is_stable": [true], "nelements": [2], "nsites": [10], "num_magnetic_sites": [0], "num_unique_magnetic_sites": [0], "theoretical": [false], "total_magnetization": [0.0], "total_magnetization_normalized_formula_units": [0.0], "total_magnetization_normalized_vol": [0.0], "uncorrected_energy_per_atom": [-14.93012], "volume": [93.72967], "equilibrium_reaction_energy_per_atom": [-0.07499227]}