{"includesElement": ["", "N", "Ge"], "includesElement___series_id": [1, 5], "includesElement__abundance_crust": [19.0, 1.5], "includesElement__atomic_number": [7, 32], "includesElement__atomic_radius": [65.0, 125.0], "includesElement__atomic_radius_rahm": [179.0, 234.0], "includesElement__atomic_volume": [17.3, 13.6], "includesElement__atomic_weight": [14.007, 72.63], "includesElement__covalent_radius_cordero": [71.0, 120.0], "includesElement__covalent_radius_pyykko": [71.0, 121.0], "includesElement__covalent_radius_pyykko_double": [60.0, 111.0], "includesElement__covalent_radius_pyykko_triple": [54.0, 114.0], "includesElement__density": [0.001145, 5.3234], "includesElement__dipole_polarizability": [7.4, 40.0], "includesElement__dipole_polarizability_unc": [0.2, 1.0], "includesElement__discovery_year": [1772, 1886], "includesElement__electron_affinity": [-1.4, 1.232712], "includesElement__electronegativity_allred-rochow": [0.000773656, 0.0003859026], "includesElement__electronegativity_cottrell-sutton": [0.2343706, 0.2160884], "includesElement__electronegativity_ghosh": [0.26493, 0.1895892], "includesElement__electronegativity_gordy": [0.05492958, 0.04669421], "includesElement__electronegativity_mulliken": [6.567065, 4.566073], "includesElement__electronegativity_nagle": [0.8774979, 0.4641589], "includesElement__electronegativity_pauling": [3.04, 2.01], "includesElement__electronegativity_sanderson": [0.577482, 0.8001471], "includesElement__en_ghosh": [0.26493, 0.1895892], "includesElement__en_pauling": [3.04, 2.01], "includesElement__glawe_number": [88, 84], "includesElement__group_id": [15, 14], "includesElement__heat_of_formation": [472.44, 372.0], "includesElement__is_radioactive": [false], "includesElement__lattice_constant": [4.039, 5.66], "includesElement__mendeleev_number": [93, 89], "includesElement__molar_heat_capacity": [29.124, 23.222], "includesElement__period": [2, 4], "includesElement__pettifor_number": [100, 84], "includesElement__specific_heat_capacity": [1.04, 0.32], "includesElement__vdw_radius": [155.0, 211.0], "includesElement__vdw_radius_alvarez": [166.0, 229.0], "includesElement__vdw_radius_mm3": [193.0, 244.0], "includesElement__vdw_radius_uff": [366.0, 428.0], "includesElement__abundance_sea": [0.5, 5e-05], "includesElement__c6_gb": [25.7, 365.0], "includesElement__covalent_radius_bragg": [65.0], "includesElement__electronegativity_allen": [18.13, 11.8], "includesElement__en_allen": [18.13, 11.8], "includesElement__metallic_radius_c12": [53.0, 144.0], "includesElement__thermal_conductivity": [0.026, 60.2], "includesElement__vdw_radius_batsanov": [160.0, 210.0], "includesElement__c6": [24.2, 354.0], "includesElement__vdw_radius_dreiding": [366.21, 427.0], "includesElement__gas_basicity": [318.7], "includesElement__proton_affinity": [342.2], "includesElement__vdw_radius_bondi": [155.0], "includesElement__vdw_radius_rt": [164.0], "includesElement__evaporation_heat": [328.0], "includesElement__fusion_heat": [36.8], "includesElement__atomic_weight_uncertainty": [0.008], "includesElement__metallic_radius": [124.0], "includesElement__vdw_radius_truhlar": [211.0], "formula": ["Ge6N8"], "spacegroup": ["176"], "thermalConductivity": [6.0348], "icsd": ["23672"], "band_gap": [1.9026], "density": [5.256243], "density_atomic": [12.36351], "deprecated": [false], "efermi": [4.918117], "energy_above_hull": [0.0002027243], "energy_per_atom": [-11.35395], "formation_energy_per_atom": [-0.1923897], "homogeneous_poisson": [0.296], "is_gap_direct": [true], "is_magnetic": [false], "is_metal": [false], "is_stable": [false], "nelements": [2], "nsites": [14], "num_magnetic_sites": [0], "num_unique_magnetic_sites": [0], "theoretical": [false], "total_magnetization": [0.0], "total_magnetization_normalized_formula_units": [0.0], "total_magnetization_normalized_vol": [0.0], "uncorrected_energy_per_atom": [-11.35395], "universal_anisotropy": [0.444], "volume": [173.0892], "cbm": [6.7233], "e_electronic": [5.164235], "e_ionic": [5.047326], "e_total": [10.21156], "n": [2.272495], "vbm": [4.8207]}