{"includesElement": ["", "F", "Nb"], "includesElement___series_id": [6, 8], "includesElement__abundance_crust": [585.0, 20.0], "includesElement__atomic_number": [9, 41], "includesElement__atomic_radius": [50.0, 145.0], "includesElement__atomic_radius_rahm": [163.0, 251.0], "includesElement__atomic_volume": [17.1, 10.8], "includesElement__atomic_weight": [18.9984, 92.90637], "includesElement__covalent_radius_cordero": [57.0, 164.0], "includesElement__covalent_radius_pyykko": [64.0, 147.0], "includesElement__covalent_radius_pyykko_double": [59.0, 125.0], "includesElement__covalent_radius_pyykko_triple": [53.0, 116.0], "includesElement__density": [0.001553, 8.57], "includesElement__dipole_polarizability": [3.74, 98.0], "includesElement__dipole_polarizability_unc": [0.08, 8.0], "includesElement__discovery_year": [1886, 1801], "includesElement__electron_affinity": [3.40119, 0.917406], "includesElement__electronegativity_allred-rochow": [0.001269531, 0.0001295756], "includesElement__electronegativity_cottrell-sutton": [0.2850439, 0.1380131], "includesElement__electronegativity_ghosh": [0.344443, 0.1280782], "includesElement__electronegativity_gordy": [0.08125, 0.01904762], "includesElement__electronegativity_mulliken": [10.412, 3.838128], "includesElement__electronegativity_nagle": [1.232373, 0.3708924], "includesElement__electronegativity_pauling": [3.98, 1.6], "includesElement__electronegativity_sanderson": [1.017681, 0.5561695], "includesElement__en_ghosh": [0.344443, 0.1280782], "includesElement__en_pauling": [3.98, 1.6], "includesElement__evaporation_heat": [6.54, 680.0], "includesElement__fusion_heat": [0.51, 26.8], "includesElement__glawe_number": [102, 53], "includesElement__group_id": [17, 5], "includesElement__heat_of_formation": [79.335, 733.0], "includesElement__is_radioactive": [false], "includesElement__mendeleev_number": [106, 48], "includesElement__molar_heat_capacity": [31.304, 24.6], "includesElement__period": [2, 5], "includesElement__pettifor_number": [102, 52], "includesElement__specific_heat_capacity": [0.824, 0.265], "includesElement__vdw_radius": [147.0, 218.0], "includesElement__vdw_radius_alvarez": [146.0, 256.0], "includesElement__vdw_radius_mm3": [171.0, 243.0], "includesElement__vdw_radius_uff": [336.4, 316.5], "includesElement__abundance_sea": [1.3, 1e-05], "includesElement__atomic_weight_uncertainty": [6e-09, 2e-05], "includesElement__c6_gb": [10.2, 1140.0], "includesElement__covalent_radius_bragg": [67.0], "includesElement__electronegativity_allen": [24.8, 8.34], "includesElement__en_allen": [24.8, 8.34], "includesElement__thermal_conductivity": [0.028, 53.7], "includesElement__vdw_radius_batsanov": [150.0, 215.0], "includesElement__c6": [9.52], "includesElement__is_monoisotopic": [true], "includesElement__vdw_radius_dreiding": [347.2], "includesElement__gas_basicity": [315.1], "includesElement__proton_affinity": [340.1], "includesElement__vdw_radius_bondi": [147.0], "includesElement__vdw_radius_rt": [146.0], "includesElement__lattice_constant": [3.3], "includesElement__metallic_radius": [134.0], "includesElement__metallic_radius_c12": [146.0], "formula": ["F4Nb1"], "spacegroup": ["139"], "thermalConductivity": [16.5854], "icsd": ["23949"], "band_gap": [0.0], "density": [3.720527], "density_atomic": [15.07663], "deprecated": [false], "efermi": [1.455911], "energy_above_hull": [0.06794873], "energy_per_atom": [-10.46494], "formation_energy_per_atom": [-3.019204], "homogeneous_poisson": [0.174], "is_gap_direct": [false], "is_magnetic": [true], "is_metal": [true], "is_stable": [false], "nelements": [2], "nsites": [5], "num_magnetic_sites": [1], "num_unique_magnetic_sites": [1], "theoretical": [false], "total_magnetization": [0.9899506], "total_magnetization_normalized_formula_units": [0.9899506], "total_magnetization_normalized_vol": [0.01313225], "uncorrected_energy_per_atom": [-6.36971], "universal_anisotropy": [13.352], "volume": [75.38316]}