{"includesElement": ["", "Cs", "I"], "includesElement___series_id": [3, 6], "includesElement__abundance_crust": [3.0, 0.45], "includesElement__atomic_number": [55, 53], "includesElement__atomic_radius": [260.0, 140.0], "includesElement__atomic_radius_rahm": [249.0, 238.0], "includesElement__atomic_volume": [70.0, 25.7], "includesElement__atomic_weight": [132.9055, 126.9045], "includesElement__covalent_radius_cordero": [244.0, 139.0], "includesElement__covalent_radius_pyykko": [232.0, 133.0], "includesElement__covalent_radius_pyykko_double": [209.0, 129.0], "includesElement__density": [1.873, 4.933], "includesElement__dipole_polarizability": [400.9, 32.9], "includesElement__dipole_polarizability_unc": [0.7, 1.3], "includesElement__discovery_year": [1860, 1811], "includesElement__electron_affinity": [0.471626, 3.059037], "includesElement__electronegativity_allred-rochow": [4.087396e-05, 0.0004296455], "includesElement__electronegativity_cottrell-sutton": [0.09737946, 0.2390457], "includesElement__electronegativity_ghosh": [0.1542125, 0.2195176], "includesElement__electronegativity_gordy": [0.009482759, 0.05714286], "includesElement__electronegativity_mulliken": [2.182766, 6.755148], "includesElement__electronegativity_nagle": [0.1356192, 0.5969904], "includesElement__electronegativity_pauling": [0.79, 2.66], "includesElement__electronegativity_sanderson": [0.1814531, 0.9386429], "includesElement__en_ghosh": [0.1542125, 0.2195176], "includesElement__en_pauling": [0.79, 2.66], "includesElement__evaporation_heat": [68.3, 41.95], "includesElement__fusion_heat": [2.09, 15.52], "includesElement__glawe_number": [8, 99], "includesElement__group_id": [1, 17], "includesElement__heat_of_formation": [76.5, 106.757], "includesElement__is_radioactive": [false], "includesElement__lattice_constant": [6.05, 7.72], "includesElement__mendeleev_number": [5, 109], "includesElement__molar_heat_capacity": [32.21, 54.43], "includesElement__period": [6, 5], "includesElement__pettifor_number": [8, 97], "includesElement__specific_heat_capacity": [0.242, 0.214], "includesElement__vdw_radius": [343.0, 198.0], "includesElement__vdw_radius_alvarez": [348.0, 204.0], "includesElement__vdw_radius_mm3": [344.0, 236.0], "includesElement__vdw_radius_uff": [451.7, 450.0], "includesElement__abundance_sea": [0.0003, 0.06], "includesElement__atomic_weight_uncertainty": [6e-08, 3e-05], "includesElement__c6_gb": [6660.0, 389.0], "includesElement__covalent_radius_bragg": [237.0, 140.0], "includesElement__electronegativity_allen": [3.898, 13.95], "includesElement__en_allen": [3.898, 13.95], "includesElement__metallic_radius": [235.0], "includesElement__metallic_radius_c12": [267.0, 139.0], "includesElement__thermal_conductivity": [35.9], "includesElement__vdw_radius_batsanov": [300.0, 210.0], "includesElement__is_monoisotopic": [true], "includesElement__vdw_radius_truhlar": [343.0], "includesElement__covalent_radius_pyykko_triple": [125.0], "includesElement__c6": [385.0], "includesElement__vdw_radius_dreiding": [415.0], "includesElement__gas_basicity": [583.5], "includesElement__proton_affinity": [608.2], "includesElement__vdw_radius_bondi": [198.0], "includesElement__vdw_radius_rt": [203.0], "formula": ["Cs1I1"], "spacegroup": ["225"], "thermalConductivity": [0.286487], "icsd": ["61517"], "band_gap": [3.8556], "density": [3.622302], "density_atomic": [59.55116], "deprecated": [false], "efermi": [-0.5925949], "energy_above_hull": [0.0], "energy_per_atom": [-2.945141], "formation_energy_per_atom": [-1.759093], "homogeneous_poisson": [0.29], "is_gap_direct": [true], "is_magnetic": [false], "is_metal": [false], "is_stable": [true], "nelements": [2], "nsites": [2], "num_magnetic_sites": [0], "num_unique_magnetic_sites": [0], "theoretical": [false], "total_magnetization": [5e-07], "total_magnetization_normalized_formula_units": [5e-07], "total_magnetization_normalized_vol": [4.198071e-09], "uncorrected_energy_per_atom": [-26.60287], "universal_anisotropy": [2.089], "volume": [119.1023], "cbm": [3.0962], "e_electronic": [2.693137], "e_ionic": [3.418566], "e_total": [6.111702], "equilibrium_reaction_energy_per_atom": [-0.9898826], "n": [1.641078], "vbm": [-0.7594]}