{"includesElement": ["", "La", "In"], "includesElement___series_id": [9, 7], "includesElement__abundance_crust": [39.0, 0.25], "includesElement__atomic_number": [57, 49], "includesElement__atomic_radius": [195.0, 155.0], "includesElement__atomic_radius_rahm": [284.0, 246.0], "includesElement__atomic_volume": [22.5, 15.7], "includesElement__atomic_weight": [138.9055, 114.818], "includesElement__covalent_radius_cordero": [207.0, 142.0], "includesElement__covalent_radius_pyykko": [180.0, 142.0], "includesElement__covalent_radius_pyykko_double": [139.0, 136.0], "includesElement__covalent_radius_pyykko_triple": [139.0, 146.0], "includesElement__density": [6.15, 7.31], "includesElement__dipole_polarizability": [215.0, 65.0], "includesElement__dipole_polarizability_unc": [20.0, 4.0], "includesElement__discovery_year": [1839, 1863], "includesElement__electron_affinity": [0.47, 0.3], "includesElement__electronegativity_allred-rochow": [9.259259e-05, 0.0002479667], "includesElement__electronegativity_cottrell-sutton": [0.1290994, 0.1876467], "includesElement__electronegativity_ghosh": [0.163142, 0.16423], "includesElement__electronegativity_gordy": [0.01666667, 0.03521127], "includesElement__electronegativity_mulliken": [3.02345, 3.043178], "includesElement__electronegativity_nagle": [0.240747, 0.3587038], "includesElement__electronegativity_pauling": [1.1, 1.78], "includesElement__electronegativity_sanderson": [0.3946505, 0.7172747], "includesElement__en_ghosh": [0.163142, 0.16423], "includesElement__en_pauling": [1.1, 1.78], "includesElement__evaporation_heat": [402.0, 225.1], "includesElement__fusion_heat": [8.5, 3.24], "includesElement__glawe_number": [32, 80], "includesElement__group_id": [3, 13], "includesElement__heat_of_formation": [431.0, 243.0], "includesElement__is_radioactive": [false], "includesElement__lattice_constant": [3.75, 4.59], "includesElement__mendeleev_number": [13, 84], "includesElement__molar_heat_capacity": [27.11, 26.74], "includesElement__period": [6, 5], "includesElement__pettifor_number": [33, 79], "includesElement__specific_heat_capacity": [0.195, 0.233], "includesElement__vdw_radius": [243.0, 193.0], "includesElement__vdw_radius_alvarez": [298.0, 243.0], "includesElement__vdw_radius_mm3": [278.0, 264.0], "includesElement__vdw_radius_uff": [352.2, 446.3], "includesElement__abundance_sea": [3.4e-06, 0.02], "includesElement__atomic_weight_uncertainty": [7e-05, 0.001], "includesElement__c6_gb": [3730.0, 643.0], "includesElement__metallic_radius": [169.0, 142.0], "includesElement__metallic_radius_c12": [187.0, 158.0], "includesElement__thermal_conductivity": [13.4, 81.8], "includesElement__vdw_radius_batsanov": [250.0, 220.0], "includesElement__gas_basicity": [991.9], "includesElement__proton_affinity": [1013.0], "includesElement__electronegativity_allen": [9.793], "includesElement__en_allen": [9.793], "includesElement__c6": [779.0], "includesElement__vdw_radius_dreiding": [459.0], "includesElement__vdw_radius_bondi": [193.0], "formula": ["In1La1"], "spacegroup": ["221"], "thermalConductivity": [3.68961], "icsd": ["51948"], "band_gap": [0.0], "density": [6.815132], "density_atomic": [30.91046], "deprecated": [false], "efermi": [7.638919], "energy_above_hull": [0.0], "energy_per_atom": [-26.81045], "formation_energy_per_atom": [-0.6487694], "homogeneous_poisson": [0.316], "is_gap_direct": [false], "is_magnetic": [false], "is_metal": [true], "is_stable": [true], "nelements": [2], "nsites": [2], "num_magnetic_sites": [0], "num_unique_magnetic_sites": [0], "theoretical": [false], "total_magnetization": [2e-07], "total_magnetization_normalized_formula_units": [2e-07], "total_magnetization_normalized_vol": [3.235151e-09], "uncorrected_energy_per_atom": [-26.81045], "universal_anisotropy": [2.987], "volume": [61.82092], "equilibrium_reaction_energy_per_atom": [-0.06833706]}