{"includesElement": ["", "Se", "Yb"], "includesElement___series_id": [1, 9], "includesElement__abundance_crust": [0.05, 3.2], "includesElement__atomic_number": [34, 70], "includesElement__atomic_radius": [115.0, 175.0], "includesElement__atomic_radius_rahm": [224.0, 277.0], "includesElement__atomic_volume": [16.5, 24.8], "includesElement__atomic_weight": [78.971, 173.045], "includesElement__covalent_radius_cordero": [120.0, 187.0], "includesElement__covalent_radius_pyykko": [116.0, 170.0], "includesElement__covalent_radius_pyykko_double": [107.0, 129.0], "includesElement__covalent_radius_pyykko_triple": [107.0], "includesElement__density": [4.809, 6.9], "includesElement__dipole_polarizability": [28.9, 139.0], "includesElement__dipole_polarizability_unc": [1.0, 6.0], "includesElement__discovery_year": [1818, 1878], "includesElement__electron_affinity": [2.02067, -0.02], "includesElement__electronegativity_allred-rochow": [0.0005164982, 9.861592e-05], "includesElement__electronegativity_cottrell-sutton": [0.2447729, 0.1294786], "includesElement__electronegativity_ghosh": [0.2240328, 0.22119], "includesElement__electronegativity_gordy": [0.05991379, 0.01676471], "includesElement__electronegativity_mulliken": [5.886531, 3.11708], "includesElement__electronegativity_nagle": [0.592131, 0.4864465], "includesElement__electronegativity_pauling": [2.55], "includesElement__electronegativity_sanderson": [0.9659121, 0.5176678], "includesElement__en_ghosh": [0.2240328, 0.22119], "includesElement__en_pauling": [2.55], "includesElement__evaporation_heat": [59.7, 159.0], "includesElement__fusion_heat": [5.23, 3.35], "includesElement__glawe_number": [95, 18], "includesElement__group_id": [16], "includesElement__heat_of_formation": [227.2, 155.6], "includesElement__is_radioactive": [false], "includesElement__lattice_constant": [4.36, 5.49], "includesElement__mendeleev_number": [101, 39], "includesElement__molar_heat_capacity": [25.363, 26.74], "includesElement__period": [4, 6], "includesElement__pettifor_number": [93, 17], "includesElement__specific_heat_capacity": [0.321, 0.155], "includesElement__vdw_radius": [190.0, 226.0], "includesElement__vdw_radius_alvarez": [182.0, 280.0], "includesElement__vdw_radius_mm3": [229.0, 279.0], "includesElement__vdw_radius_uff": [420.5, 335.5], "includesElement__abundance_sea": [0.0002, 8.2e-07], "includesElement__atomic_weight_uncertainty": [0.008, 0.01], "includesElement__c6_gb": [233.0, 1910.0], "includesElement__covalent_radius_bragg": [117.0], "includesElement__electronegativity_allen": [14.34], "includesElement__en_allen": [14.34], "includesElement__metallic_radius": [117.0], "includesElement__metallic_radius_c12": [140.0], "includesElement__thermal_conductivity": [0.52], "includesElement__vdw_radius_batsanov": [190.0], "includesElement__c6": [210.0], "includesElement__vdw_radius_dreiding": [403.0], "includesElement__vdw_radius_bondi": [190.0], "formula": ["Se1Yb1"], "spacegroup": ["225"], "thermalConductivity": [6.83574], "icsd": ["106048"], "band_gap": [1.9621], "density": [8.084642], "density_atomic": [25.87968], "deprecated": [false], "efermi": [1.738866], "homogeneous_poisson": [0.219], "is_gap_direct": [false], "is_magnetic": [false], "is_metal": [false], "is_stable": [false], "nelements": [2], "nsites": [2], "num_magnetic_sites": [0], "num_unique_magnetic_sites": [0], "theoretical": [false], "total_magnetization": [0.0016481], "total_magnetization_normalized_formula_units": [0.0016481], "total_magnetization_normalized_vol": [3.184159e-05], "universal_anisotropy": [0.561], "volume": [51.75935], "cbm": [3.6286], "vbm": [1.6665]}