{"includesElement": ["", "Ge", "Te"], "includesElement___series_id": [5], "includesElement__abundance_crust": [1.5, 0.001], "includesElement__atomic_number": [32, 52], "includesElement__atomic_radius": [125.0, 140.0], "includesElement__atomic_radius_rahm": [234.0, 242.0], "includesElement__atomic_volume": [13.6, 20.5], "includesElement__atomic_weight": [72.63, 127.6], "includesElement__covalent_radius_cordero": [120.0, 138.0], "includesElement__covalent_radius_pyykko": [121.0, 136.0], "includesElement__covalent_radius_pyykko_double": [111.0, 128.0], "includesElement__covalent_radius_pyykko_triple": [114.0, 121.0], "includesElement__density": [5.3234, 6.232], "includesElement__dipole_polarizability": [40.0, 38.0], "includesElement__dipole_polarizability_unc": [1.0, 4.0], "includesElement__discovery_year": [1886, 1782], "includesElement__electron_affinity": [1.232712, 1.970876], "includesElement__electronegativity_allred-rochow": [0.0003859026, 0.0003757569], "includesElement__electronegativity_cottrell-sutton": [0.2160884, 0.2260596], "includesElement__electronegativity_ghosh": [0.1895892, 0.2056992], "includesElement__electronegativity_gordy": [0.04669421, 0.05110294], "includesElement__electronegativity_mulliken": [4.566073, 5.490268], "includesElement__electronegativity_nagle": [0.4641589, 0.5404919], "includesElement__electronegativity_pauling": [2.01, 2.1], "includesElement__electronegativity_sanderson": [0.8001471, 0.8622506], "includesElement__en_ghosh": [0.1895892, 0.2056992], "includesElement__en_pauling": [2.01, 2.1], "includesElement__evaporation_heat": [328.0, 49.8], "includesElement__fusion_heat": [36.8, 17.91], "includesElement__glawe_number": [84, 94], "includesElement__group_id": [14, 16], "includesElement__heat_of_formation": [372.0, 196.6], "includesElement__is_radioactive": [false], "includesElement__lattice_constant": [5.66, 4.45], "includesElement__mendeleev_number": [89, 102], "includesElement__molar_heat_capacity": [23.222, 25.73], "includesElement__period": [4, 5], "includesElement__pettifor_number": [84, 92], "includesElement__specific_heat_capacity": [0.32, 0.202], "includesElement__vdw_radius": [211.0, 206.0], "includesElement__vdw_radius_alvarez": [229.0, 199.0], "includesElement__vdw_radius_mm3": [244.0], "includesElement__vdw_radius_uff": [428.0, 447.0], "includesElement__abundance_sea": [5e-05], "includesElement__atomic_weight_uncertainty": [0.008, 0.03], "includesElement__c6_gb": [365.0, 471.0], "includesElement__electronegativity_allen": [11.8, 12.76], "includesElement__en_allen": [11.8, 12.76], "includesElement__metallic_radius": [124.0, 137.0], "includesElement__metallic_radius_c12": [144.0, 160.0], "includesElement__thermal_conductivity": [60.2, 14.3], "includesElement__vdw_radius_batsanov": [210.0], "includesElement__c6": [354.0, 445.0], "includesElement__vdw_radius_dreiding": [427.0, 423.0], "includesElement__vdw_radius_truhlar": [211.0], "includesElement__covalent_radius_bragg": [133.0], "includesElement__vdw_radius_bondi": [206.0], "formula": ["Ge1Te1"], "spacegroup": ["225"], "thermalConductivity": [9.83226], "icsd": ["56037"], "band_gap": [0.4068], "density": [6.131197], "density_atomic": [27.11594], "deprecated": [false], "efermi": [5.800301], "energy_above_hull": [0.0203087], "energy_per_atom": [-19.65976], "formation_energy_per_atom": [-0.0151593], "homogeneous_poisson": [0.17], "is_gap_direct": [true], "is_magnetic": [false], "is_metal": [false], "is_stable": [false], "nelements": [2], "nsites": [2], "num_magnetic_sites": [0], "num_unique_magnetic_sites": [0], "theoretical": [false], "total_magnetization": [0.0004342], "total_magnetization_normalized_formula_units": [0.0004342], "total_magnetization_normalized_vol": [8.00636e-06], "uncorrected_energy_per_atom": [-3.955078], "universal_anisotropy": [1.314], "volume": [54.23188], "cbm": [6.1797], "vbm": [5.7729]}