{"includesElement": ["", "Ag", "Pt"], "includesElement___series_id": [8], "includesElement__abundance_crust": [0.075, 0.005], "includesElement__atomic_number": [47, 78], "includesElement__atomic_radius": [160.0, 135.0], "includesElement__atomic_radius_rahm": [225.0, 230.0], "includesElement__atomic_volume": [10.3, 9.1], "includesElement__atomic_weight": [107.8682, 195.084], "includesElement__covalent_radius_cordero": [145.0, 136.0], "includesElement__covalent_radius_pyykko": [128.0, 123.0], "includesElement__covalent_radius_pyykko_double": [139.0, 112.0], "includesElement__covalent_radius_pyykko_triple": [137.0, 110.0], "includesElement__density": [10.5, 21.5], "includesElement__dipole_polarizability": [55.0, 48.0], "includesElement__dipole_polarizability_unc": [8.0, 4.0], "includesElement__electron_affinity": [1.302, 2.128], "includesElement__electronegativity_allred-rochow": [0.0002258301, 0.0002346487], "includesElement__electronegativity_cottrell-sutton": [0.1700184, 0.1698876], "includesElement__electronegativity_ghosh": [0.1472165, 0.25691], "includesElement__electronegativity_gordy": [0.02890625, 0.02886179], "includesElement__electronegativity_mulliken": [4.439117, 5.543415], "includesElement__electronegativity_nagle": [0.5848035, 0.5928156], "includesElement__electronegativity_pauling": [1.93, 2.2], "includesElement__electronegativity_sanderson": [0.9437955, 1.45101], "includesElement__en_ghosh": [0.1472165, 0.25691], "includesElement__en_pauling": [1.93, 2.2], "includesElement__evaporation_heat": [254.1, 470.0], "includesElement__fusion_heat": [11.95, 21.76], "includesElement__glawe_number": [67, 64], "includesElement__group_id": [11, 10], "includesElement__heat_of_formation": [284.9, 565.7], "includesElement__is_radioactive": [false], "includesElement__lattice_constant": [4.09, 3.92], "includesElement__mendeleev_number": [72, 69], "includesElement__molar_heat_capacity": [25.35, 25.86], "includesElement__period": [5, 6], "includesElement__pettifor_number": [71, 68], "includesElement__specific_heat_capacity": [0.235, 0.133], "includesElement__vdw_radius": [211.0, 213.0], "includesElement__vdw_radius_alvarez": [253.0, 229.0], "includesElement__vdw_radius_mm3": [243.0, 239.0], "includesElement__vdw_radius_uff": [314.8, 275.4], "includesElement__abundance_sea": [4e-05], "includesElement__atomic_weight_uncertainty": [0.0002, 0.009], "includesElement__c6_gb": [341.0, 470.0], "includesElement__covalent_radius_bragg": [177.0], "includesElement__electronegativity_allen": [11.05, 10.16], "includesElement__en_allen": [11.05, 10.16], "includesElement__metallic_radius": [134.0, 130.0], "includesElement__metallic_radius_c12": [144.0, 139.0], "includesElement__thermal_conductivity": [429.0, 71.6], "includesElement__vdw_radius_batsanov": [210.0, 205.0], "includesElement__discovery_year": [1735], "formula": ["Ag3Pt1"], "spacegroup": ["221"], "thermalConductivity": [1.08992], "icsd": ["180883"], "band_gap": [0.0], "density": [12.90686], "density_atomic": [16.68304], "deprecated": [false], "efermi": [3.760413], "energy_above_hull": [0.02080542], "energy_per_atom": [-28.90923], "formation_energy_per_atom": [-0.02039122], "homogeneous_poisson": [0.369], "is_gap_direct": [false], "is_magnetic": [false], "is_metal": [true], "is_stable": [false], "nelements": [2], "nsites": [4], "num_magnetic_sites": [0], "num_unique_magnetic_sites": [0], "theoretical": [false], "total_magnetization": [0.0], "total_magnetization_normalized_formula_units": [0.0], "total_magnetization_normalized_vol": [0.0], "uncorrected_energy_per_atom": [-28.90923], "universal_anisotropy": [1.268], "volume": [66.73215]}