{"includesElement": ["", "Fe", "Ti"], "includesElement___series_id": [8], "includesElement__abundance_crust": [56300.0, 5650.0], "includesElement__atomic_number": [26, 22], "includesElement__atomic_radius": [140.0], "includesElement__atomic_radius_rahm": [237.0, 257.0], "includesElement__atomic_volume": [7.1, 10.6], "includesElement__atomic_weight": [55.845, 47.867], "includesElement__covalent_radius_cordero": [142.0, 160.0], "includesElement__covalent_radius_pyykko": [116.0, 136.0], "includesElement__covalent_radius_pyykko_double": [109.0, 117.0], "includesElement__covalent_radius_pyykko_triple": [102.0, 108.0], "includesElement__density": [7.87, 4.506], "includesElement__dipole_polarizability": [62.0, 100.0], "includesElement__dipole_polarizability_unc": [4.0, 10.0], "includesElement__electron_affinity": [0.151, 0.079], "includesElement__electronegativity_allred-rochow": [0.0002786861, 0.0001703071], "includesElement__electronegativity_cottrell-sutton": [0.1797987, 0.1521899], "includesElement__electronegativity_ghosh": [0.1392532, 0.1233637], "includesElement__electronegativity_gordy": [0.03232759, 0.02316176], "includesElement__electronegativity_mulliken": [4.026734, 3.45356], "includesElement__electronegativity_nagle": [0.5053195, 0.3419952], "includesElement__electronegativity_pauling": [1.83, 1.54], "includesElement__electronegativity_sanderson": [0.748727, 0.4055462], "includesElement__en_ghosh": [0.1392532, 0.1233637], "includesElement__en_pauling": [1.83, 1.54], "includesElement__evaporation_heat": [340.0, 422.6], "includesElement__fusion_heat": [13.8, 18.8], "includesElement__glawe_number": [71, 51], "includesElement__group_id": [8, 4], "includesElement__heat_of_formation": [415.5, 473.0], "includesElement__is_radioactive": [false], "includesElement__lattice_constant": [2.87, 2.95], "includesElement__mendeleev_number": [59, 43], "includesElement__molar_heat_capacity": [25.1, 25.06], "includesElement__period": [4], "includesElement__pettifor_number": [61, 51], "includesElement__specific_heat_capacity": [0.449, 0.523], "includesElement__vdw_radius": [204.0, 211.0], "includesElement__vdw_radius_alvarez": [244.0, 246.0], "includesElement__vdw_radius_mm3": [223.0, 239.0], "includesElement__vdw_radius_uff": [291.2, 317.5], "includesElement__abundance_sea": [0.002, 0.001], "includesElement__atomic_weight_uncertainty": [0.002, 0.001], "includesElement__c6_gb": [548.0, 1200.0], "includesElement__covalent_radius_bragg": [140.0], "includesElement__electronegativity_allen": [10.64, 8.17], "includesElement__en_allen": [10.64, 8.17], "includesElement__metallic_radius": [117.0, 132.0], "includesElement__metallic_radius_c12": [126.0, 147.0], "includesElement__thermal_conductivity": [80.4, 21.9], "includesElement__vdw_radius_batsanov": [205.0, 215.0], "includesElement__c6": [482.0, 1044.0], "includesElement__gas_basicity": [731.1, 853.7], "includesElement__proton_affinity": [754.0, 876.0], "includesElement__discovery_year": [1791], "formula": ["Fe1Ti1"], "spacegroup": ["221"], "thermalConductivity": [45.0433], "icsd": ["100533"], "band_gap": [0.0], "density": [6.78611], "density_atomic": [12.68899], "deprecated": [false], "efermi": [6.686692], "energy_above_hull": [0.0], "energy_per_atom": [-8.603587], "formation_energy_per_atom": [-0.4208302], "homogeneous_poisson": [0.294], "is_gap_direct": [false], "is_magnetic": [false], "is_metal": [true], "is_stable": [true], "nelements": [2], "nsites": [2], "num_magnetic_sites": [0], "num_unique_magnetic_sites": [0], "theoretical": [false], "total_magnetization": [1.7e-06], "total_magnetization_normalized_formula_units": [1.7e-06], "total_magnetization_normalized_vol": [6.698718e-08], "uncorrected_energy_per_atom": [-13.89619], "universal_anisotropy": [0.522], "volume": [25.37799], "equilibrium_reaction_energy_per_atom": [-0.2082912]}