{"includesElement": ["", "V", "H"], "includesElement___series_id": [8, 1], "includesElement__abundance_crust": [120.0, 1400.0], "includesElement__atomic_number": [23, 1], "includesElement__atomic_radius": [135.0, 25.0], "includesElement__atomic_radius_rahm": [252.0, 154.0], "includesElement__atomic_volume": [8.35, 14.1], "includesElement__atomic_weight": [50.9415, 1.008], "includesElement__covalent_radius_cordero": [153.0, 31.0], "includesElement__covalent_radius_pyykko": [134.0, 32.0], "includesElement__covalent_radius_pyykko_double": [112.0], "includesElement__covalent_radius_pyykko_triple": [106.0], "includesElement__density": [6.0, 8.2e-05], "includesElement__dipole_polarizability": [87.0, 4.50711], "includesElement__dipole_polarizability_unc": [10.0, 3e-05], "includesElement__discovery_year": [1830, 1766], "includesElement__electron_affinity": [0.525, 0.754195], "includesElement__electronegativity_allred-rochow": [0.0001837826, 0.0009765625], "includesElement__electronegativity_cottrell-sutton": [0.1569295, 0.1767767], "includesElement__electronegativity_ghosh": [0.1273344, 0.2638], "includesElement__electronegativity_gordy": [0.02462687, 0.03125], "includesElement__electronegativity_mulliken": [3.635594, 7.176315], "includesElement__electronegativity_nagle": [0.3859078, 0.6053882], "includesElement__electronegativity_pauling": [1.63, 2.2], "includesElement__electronegativity_sanderson": [0.4388898, 2.187771], "includesElement__en_ghosh": [0.1273344, 0.2638], "includesElement__en_pauling": [1.63, 2.2], "includesElement__evaporation_heat": [460.0, 0.904], "includesElement__fusion_heat": [17.5, 0.117], "includesElement__glawe_number": [54, 103], "includesElement__group_id": [5, 1], "includesElement__heat_of_formation": [515.5, 217.998], "includesElement__is_radioactive": [false], "includesElement__lattice_constant": [3.02, 3.75], "includesElement__mendeleev_number": [47, 105], "includesElement__molar_heat_capacity": [24.89, 28.836], "includesElement__period": [4, 1], "includesElement__pettifor_number": [54, 103], "includesElement__specific_heat_capacity": [0.489, 14.304], "includesElement__vdw_radius": [207.0, 110.0], "includesElement__vdw_radius_alvarez": [242.0, 120.0], "includesElement__vdw_radius_mm3": [229.0, 162.0], "includesElement__vdw_radius_uff": [314.4, 288.6], "includesElement__abundance_sea": [0.0025, 108000.0], "includesElement__atomic_weight_uncertainty": [0.0001], "includesElement__c6_gb": [955.0, 6.51], "includesElement__electronegativity_allen": [9.063, 13.61], "includesElement__en_allen": [9.063, 13.61], "includesElement__metallic_radius": [122.0], "includesElement__metallic_radius_c12": [134.0, 78.0], "includesElement__thermal_conductivity": [30.7, 0.1815], "includesElement__vdw_radius_batsanov": [205.0], "includesElement__c6": [832.0, 6.499027], "includesElement__gas_basicity": [836.8], "includesElement__proton_affinity": [859.4], "includesElement__vdw_radius_dreiding": [319.5], "includesElement__vdw_radius_bondi": [120.0], "includesElement__vdw_radius_rt": [110.0], "formula": ["H2V1"], "spacegroup": ["225"], "thermalConductivity": [15.6993], "icsd": ["164603"], "band_gap": [0.0], "density": [4.764209], "density_atomic": [6.152668], "deprecated": [false], "efermi": [5.678887], "energy_above_hull": [0.0], "energy_per_atom": [-7.226795], "formation_energy_per_atom": [-0.226862], "homogeneous_poisson": [0.285], "is_gap_direct": [false], "is_magnetic": [false], "is_metal": [true], "is_stable": [true], "nelements": [2], "nsites": [3], "num_magnetic_sites": [0], "num_unique_magnetic_sites": [0], "theoretical": [false], "total_magnetization": [3.04e-05], "total_magnetization_normalized_formula_units": [3.04e-05], "total_magnetization_normalized_vol": [1.646982e-06], "uncorrected_energy_per_atom": [-7.226795], "universal_anisotropy": [0.007], "volume": [18.45801], "equilibrium_reaction_energy_per_atom": [-0.1415382]}