{"includesElement": ["", "Zn", "F"], "includesElement___series_id": [8, 6], "includesElement__abundance_crust": [70.0, 585.0], "includesElement__atomic_number": [30, 9], "includesElement__atomic_radius": [135.0, 50.0], "includesElement__atomic_radius_rahm": [222.0, 163.0], "includesElement__atomic_volume": [9.2, 17.1], "includesElement__atomic_weight": [65.38, 18.9984], "includesElement__covalent_radius_cordero": [122.0, 57.0], "includesElement__covalent_radius_pyykko": [118.0, 64.0], "includesElement__covalent_radius_pyykko_double": [120.0, 59.0], "includesElement__density": [7.134, 0.001553], "includesElement__dipole_polarizability": [38.67, 3.74], "includesElement__dipole_polarizability_unc": [0.3, 0.08], "includesElement__electronegativity_allred-rochow": [0.0003124102, 0.001269531], "includesElement__electronegativity_cottrell-sutton": [0.1920011, 0.2850439], "includesElement__electronegativity_ghosh": [0.1551518, 0.344443], "includesElement__electronegativity_gordy": [0.03686441, 0.08125], "includesElement__electronegativity_mulliken": [4.6971, 10.412], "includesElement__electronegativity_nagle": [0.6770213, 1.232373], "includesElement__electronegativity_pauling": [1.65, 3.98], "includesElement__electronegativity_sanderson": [0.8100877, 1.017681], "includesElement__en_ghosh": [0.1551518, 0.344443], "includesElement__en_pauling": [1.65, 3.98], "includesElement__evaporation_heat": [114.8, 6.54], "includesElement__fusion_heat": [7.28, 0.51], "includesElement__glawe_number": [74, 102], "includesElement__group_id": [12, 17], "includesElement__heat_of_formation": [130.4, 79.335], "includesElement__is_radioactive": [false], "includesElement__lattice_constant": [2.66], "includesElement__mendeleev_number": [77, 106], "includesElement__molar_heat_capacity": [25.39, 31.304], "includesElement__period": [4, 2], "includesElement__pettifor_number": [76, 102], "includesElement__specific_heat_capacity": [0.388, 0.824], "includesElement__vdw_radius": [201.0, 147.0], "includesElement__vdw_radius_alvarez": [239.0, 146.0], "includesElement__vdw_radius_mm3": [229.0, 171.0], "includesElement__vdw_radius_uff": [276.3, 336.4], "includesElement__abundance_sea": [0.0049, 1.3], "includesElement__atomic_weight_uncertainty": [0.02, 6e-09], "includesElement__c6_gb": [276.0, 10.2], "includesElement__covalent_radius_bragg": [132.0, 67.0], "includesElement__electronegativity_allen": [9.395, 24.8], "includesElement__en_allen": [9.395, 24.8], "includesElement__metallic_radius": [121.0], "includesElement__metallic_radius_c12": [134.0], "includesElement__thermal_conductivity": [116.0, 0.028], "includesElement__vdw_radius_batsanov": [210.0, 150.0], "includesElement__c6": [284.0, 9.52], "includesElement__gas_basicity": [586.0, 315.1], "includesElement__proton_affinity": [608.6, 340.1], "includesElement__covalent_radius_pyykko_triple": [53.0], "includesElement__discovery_year": [1886], "includesElement__electron_affinity": [3.40119], "includesElement__is_monoisotopic": [true], "includesElement__vdw_radius_dreiding": [347.2], "includesElement__vdw_radius_bondi": [147.0], "includesElement__vdw_radius_rt": [146.0], "formula": ["F8Zn4"], "spacegroup": ["60"], "thermalConductivity": [2.59549], "icsd": ["20364"], "band_gap": [3.5604], "density": [5.04369], "density_atomic": [11.34813], "deprecated": [false], "efermi": [-1.677824], "energy_above_hull": [0.002365271], "energy_per_atom": [-7.613369], "formation_energy_per_atom": [-2.560731], "homogeneous_poisson": [0.354], "is_gap_direct": [false], "is_magnetic": [false], "is_metal": [false], "is_stable": [false], "nelements": [2], "nsites": [12], "num_magnetic_sites": [0], "num_unique_magnetic_sites": [0], "theoretical": [false], "total_magnetization": [0.0], "total_magnetization_normalized_formula_units": [0.0], "total_magnetization_normalized_vol": [0.0], "uncorrected_energy_per_atom": [-7.613369], "universal_anisotropy": [0.358], "volume": [136.1776], "cbm": [1.8053], "e_electronic": [2.553375], "e_ionic": [5.822408], "e_total": [8.375783], "n": [1.597928], "vbm": [-1.7551]}