{"includesElement": ["", "P", "Ti"], "includesElement___series_id": [1, 8], "includesElement__abundance_crust": [1050.0, 5650.0], "includesElement__atomic_number": [15, 22], "includesElement__atomic_radius": [100.0, 140.0], "includesElement__atomic_radius_rahm": [223.0, 257.0], "includesElement__atomic_volume": [17.0, 10.6], "includesElement__atomic_weight": [30.97376, 47.867], "includesElement__covalent_radius_cordero": [107.0, 160.0], "includesElement__covalent_radius_pyykko": [111.0, 136.0], "includesElement__covalent_radius_pyykko_double": [102.0, 117.0], "includesElement__covalent_radius_pyykko_triple": [94.0, 108.0], "includesElement__density": [1.823, 4.506], "includesElement__dipole_polarizability": [25.0, 100.0], "includesElement__dipole_polarizability_unc": [1.0, 10.0], "includesElement__discovery_year": [1669, 1791], "includesElement__electron_affinity": [0.746607, 0.079], "includesElement__electronegativity_allred-rochow": [0.0003895788, 0.0001703071], "includesElement__electronegativity_cottrell-sutton": [0.2079501, 0.1521899], "includesElement__electronegativity_ghosh": [0.206931, 0.1233637], "includesElement__electronegativity_gordy": [0.04324324, 0.02316176], "includesElement__electronegativity_mulliken": [5.616646, 3.45356], "includesElement__electronegativity_nagle": [0.5848035, 0.3419952], "includesElement__electronegativity_pauling": [2.19, 1.54], "includesElement__electronegativity_sanderson": [0.4510269, 0.4055462], "includesElement__en_ghosh": [0.206931, 0.1233637], "includesElement__en_pauling": [2.19, 1.54], "includesElement__evaporation_heat": [49.8, 422.6], "includesElement__fusion_heat": [2.51, 18.8], "includesElement__glawe_number": [89, 51], "includesElement__group_id": [15, 4], "includesElement__heat_of_formation": [316.5, 473.0], "includesElement__is_radioactive": [false], "includesElement__lattice_constant": [7.17, 2.95], "includesElement__mendeleev_number": [94, 43], "includesElement__molar_heat_capacity": [23.824, 25.06], "includesElement__period": [3, 4], "includesElement__pettifor_number": [90, 51], "includesElement__specific_heat_capacity": [0.769, 0.523], "includesElement__vdw_radius": [180.0, 211.0], "includesElement__vdw_radius_alvarez": [190.0, 246.0], "includesElement__vdw_radius_mm3": [222.0, 239.0], "includesElement__vdw_radius_uff": [414.7, 317.5], "includesElement__abundance_sea": [0.06, 0.001], "includesElement__atomic_weight_uncertainty": [5e-09, 0.001], "includesElement__c6_gb": [187.0, 1200.0], "includesElement__electronegativity_allen": [13.33, 8.17], "includesElement__en_allen": [13.33, 8.17], "includesElement__metallic_radius": [110.0, 132.0], "includesElement__metallic_radius_c12": [128.0, 147.0], "includesElement__vdw_radius_batsanov": [195.0, 215.0], "includesElement__c6": [185.0, 1044.0], "includesElement__is_monoisotopic": [true], "includesElement__vdw_radius_dreiding": [415.0], "includesElement__gas_basicity": [604.8, 853.7], "includesElement__proton_affinity": [626.8, 876.0], "includesElement__vdw_radius_bondi": [180.0], "includesElement__covalent_radius_bragg": [140.0], "includesElement__thermal_conductivity": [21.9], "formula": ["P8Ti4"], "spacegroup": ["62"], "thermalConductivity": [10.828], "icsd": ["24351"], "band_gap": [0.0], "density": [4.271221], "density_atomic": [14.23101], "deprecated": [false], "efermi": [9.400106], "energy_above_hull": [0.006235407], "energy_per_atom": [-11.16644], "formation_energy_per_atom": [-0.8524719], "homogeneous_poisson": [0.222], "is_gap_direct": [false], "is_magnetic": [false], "is_metal": [true], "is_stable": [false], "nelements": [2], "nsites": [12], "num_magnetic_sites": [0], "num_unique_magnetic_sites": [0], "theoretical": [false], "total_magnetization": [0.0], "total_magnetization_normalized_formula_units": [0.0], "total_magnetization_normalized_vol": [0.0], "uncorrected_energy_per_atom": [-11.16644], "universal_anisotropy": [0.254], "volume": [170.7721]}