{"includesElement": ["", "Li", "B", "C"], "includesElement___series_id": [3, 5, 1], "includesElement__abundance_crust": [20.0, 10.0, 200.0], "includesElement__atomic_number": [3, 5, 6], "includesElement__atomic_radius": [145.0, 85.0, 70.0], "includesElement__atomic_radius_rahm": [220.0, 205.0, 190.0], "includesElement__atomic_volume": [13.1, 4.6, 5.3], "includesElement__atomic_weight": [6.94, 10.81, 12.011], "includesElement__covalent_radius_cordero": [128.0, 84.0, 73.0], "includesElement__covalent_radius_pyykko": [133.0, 85.0, 75.0], "includesElement__covalent_radius_pyykko_double": [124.0, 78.0, 67.0], "includesElement__density": [0.534, 2.34, 2.2], "includesElement__dipole_polarizability": [164.1125, 20.5, 11.3], "includesElement__dipole_polarizability_unc": [0.0005, 0.1, 0.2], "includesElement__discovery_year": [1817, 1808], "includesElement__electron_affinity": [0.618049, 0.279723, 1.262119], "includesElement__electronegativity_allred-rochow": [7.3492e-05, 0.0003598616, 0.0005777778], "includesElement__electronegativity_cottrell-sutton": [0.09886575, 0.1748949, 0.2081666], "includesElement__electronegativity_ghosh": [0.105093, 0.184886, 0.224776], "includesElement__electronegativity_gordy": [0.009774436, 0.03058824, 0.04333333], "includesElement__electronegativity_mulliken": [3.004882, 4.288871, 6.261208], "includesElement__electronegativity_nagle": [0.1826499, 0.5269739, 0.7073926], "includesElement__electronegativity_pauling": [0.98, 2.04, 2.55], "includesElement__electronegativity_sanderson": [0.04886793, 0.2546274, 0.427525], "includesElement__en_ghosh": [0.105093, 0.184886, 0.224776], "includesElement__en_pauling": [0.98, 2.04, 2.55], "includesElement__evaporation_heat": [148.0, 504.5], "includesElement__fusion_heat": [2.89, 23.6], "includesElement__glawe_number": [12, 86, 87], "includesElement__group_id": [1, 13, 14], "includesElement__heat_of_formation": [159.3, 565.0, 716.87], "includesElement__is_radioactive": [false], "includesElement__lattice_constant": [3.49, 8.73, 3.57], "includesElement__mendeleev_number": [1, 81, 87], "includesElement__molar_heat_capacity": [24.86, 11.087, 8.517], "includesElement__period": [2], "includesElement__pettifor_number": [12, 86, 95], "includesElement__specific_heat_capacity": [3.582, 1.026, 0.709], "includesElement__vdw_radius": [182.0, 192.0, 170.0], "includesElement__vdw_radius_alvarez": [212.0, 191.0, 177.0], "includesElement__vdw_radius_mm3": [255.0, 215.0, 204.0], "includesElement__vdw_radius_uff": [245.1, 408.3, 385.1], "includesElement__abundance_sea": [0.18, 4.44, 28.0], "includesElement__c6_gb": [1410.0, 99.2, 47.9], "includesElement__covalent_radius_bragg": [150.0, 77.0], "includesElement__electronegativity_allen": [5.392, 12.13, 15.05], "includesElement__en_allen": [5.392, 12.13, 15.05], "includesElement__metallic_radius": [123.0, 80.0], "includesElement__metallic_radius_c12": [155.0, 98.0, 86.0], "includesElement__thermal_conductivity": [84.8, 27.4, 1.59], "includesElement__vdw_radius_batsanov": [220.0, 180.0, 170.0], "includesElement__c6": [1392.0, 99.5, 46.6], "includesElement__vdw_radius_bondi": [181.0, 170.0], "includesElement__covalent_radius_pyykko_triple": [73.0, 60.0], "includesElement__vdw_radius_dreiding": [402.0, 389.83], "includesElement__vdw_radius_truhlar": [192.0], "includesElement__vdw_radius_rt": [177.0], "formula": ["B2C2Li2"], "spacegroup": ["194"], "thermalConductivity": [53.3418], "icsd": ["245287"], "band_gap": [0.8471], "density": [2.183367], "density_atomic": [7.545247], "deprecated": [false], "efermi": [4.296194], "energy_above_hull": [0.0], "energy_per_atom": [-6.314074], "formation_energy_per_atom": [-0.3750804], "homogeneous_poisson": [0.163], "is_gap_direct": [false], "is_magnetic": [false], "is_metal": [false], "is_stable": [true], "nelements": [3], "nsites": [6], "num_magnetic_sites": [0], "num_unique_magnetic_sites": [0], "theoretical": [false], "total_magnetization": [0.0], "total_magnetization_normalized_formula_units": [0.0], "total_magnetization_normalized_vol": [0.0], "uncorrected_energy_per_atom": [-7.028731], "universal_anisotropy": [4.455], "volume": [45.27148], "cbm": [5.0833], "e_electronic": [11.66826], "e_ionic": [5.467559], "e_total": [17.13582], "equilibrium_reaction_energy_per_atom": [-0.2631141], "n": [3.415884], "vbm": [4.2362]}