{"includesElement": ["", "Se", "U"], "includesElement___series_id": [1, 10], "includesElement__abundance_crust": [0.05, 2.7], "includesElement__atomic_number": [34, 92], "includesElement__atomic_radius": [115.0, 175.0], "includesElement__atomic_radius_rahm": [224.0, 283.0], "includesElement__atomic_volume": [16.5, 12.5], "includesElement__atomic_weight": [78.971, 238.0289], "includesElement__covalent_radius_cordero": [120.0, 196.0], "includesElement__covalent_radius_pyykko": [116.0, 170.0], "includesElement__covalent_radius_pyykko_double": [107.0, 134.0], "includesElement__covalent_radius_pyykko_triple": [107.0, 118.0], "includesElement__density": [4.809, 19.1], "includesElement__dipole_polarizability": [28.9, 129.0], "includesElement__dipole_polarizability_unc": [1.0, 17.0], "includesElement__discovery_year": [1818, 1789], "includesElement__electron_affinity": [2.02067], "includesElement__electronegativity_allred-rochow": [0.0005164982, 0.0001038062], "includesElement__electronegativity_cottrell-sutton": [0.2447729, 0.1328422], "includesElement__electronegativity_ghosh": [0.2240328, 0.13207], "includesElement__electronegativity_gordy": [0.05991379, 0.01764706], "includesElement__electronegativity_mulliken": [5.886531, 3.097025], "includesElement__electronegativity_nagle": [0.592131, 0.3596283], "includesElement__electronegativity_pauling": [2.55, 1.7], "includesElement__electronegativity_sanderson": [0.9659121, 0.618118], "includesElement__en_ghosh": [0.2240328, 0.13207], "includesElement__en_pauling": [2.55, 1.7], "includesElement__evaporation_heat": [59.7, 417.0], "includesElement__fusion_heat": [5.23, 12.6], "includesElement__glawe_number": [95, 36], "includesElement__group_id": [16], "includesElement__heat_of_formation": [227.2, 533.0], "includesElement__is_radioactive": [false, true], "includesElement__lattice_constant": [4.36, 2.85], "includesElement__mendeleev_number": [101, 20], "includesElement__molar_heat_capacity": [25.363, 27.665], "includesElement__period": [4, 7], "includesElement__pettifor_number": [93, 45], "includesElement__specific_heat_capacity": [0.321, 0.116], "includesElement__vdw_radius": [190.0, 241.0], "includesElement__vdw_radius_alvarez": [182.0, 271.0], "includesElement__vdw_radius_mm3": [229.0, 252.0], "includesElement__vdw_radius_uff": [420.5, 339.5], "includesElement__abundance_sea": [0.0002, 0.0032], "includesElement__atomic_weight_uncertainty": [0.008, 3e-05], "includesElement__c6_gb": [233.0], "includesElement__covalent_radius_bragg": [117.0], "includesElement__electronegativity_allen": [14.34], "includesElement__en_allen": [14.34], "includesElement__metallic_radius": [117.0], "includesElement__metallic_radius_c12": [140.0], "includesElement__thermal_conductivity": [0.52, 27.5], "includesElement__vdw_radius_batsanov": [190.0, 230.0], "includesElement__c6": [210.0], "includesElement__vdw_radius_dreiding": [403.0], "includesElement__vdw_radius_bondi": [190.0], "includesElement__gas_basicity": [973.2], "includesElement__proton_affinity": [995.2], "formula": ["Se8U6"], "spacegroup": ["220"], "thermalConductivity": [1.61557], "icsd": ["23710"], "band_gap": [0.0], "density": [9.851148], "density_atomic": [24.80108], "deprecated": [false], "efermi": [9.305476], "energy_above_hull": [0.03798535], "energy_per_atom": [-8.191017], "formation_energy_per_atom": [-1.354178], "is_gap_direct": [false], "is_magnetic": [true], "is_metal": [true], "is_stable": [false], "nelements": [2], "nsites": [14], "num_magnetic_sites": [6], "num_unique_magnetic_sites": [6], "theoretical": [false], "total_magnetization": [19.94843], "total_magnetization_normalized_formula_units": [9.974215], "total_magnetization_normalized_vol": [0.05745266], "uncorrected_energy_per_atom": [-44.01811], "volume": [347.2151]}