{"includesElement": ["", "Ti", "B"], "includesElement___series_id": [8, 5], "includesElement__abundance_crust": [5650.0, 10.0], "includesElement__atomic_number": [22, 5], "includesElement__atomic_radius": [140.0, 85.0], "includesElement__atomic_radius_rahm": [257.0, 205.0], "includesElement__atomic_volume": [10.6, 4.6], "includesElement__atomic_weight": [47.867, 10.81], "includesElement__covalent_radius_cordero": [160.0, 84.0], "includesElement__covalent_radius_pyykko": [136.0, 85.0], "includesElement__covalent_radius_pyykko_double": [117.0, 78.0], "includesElement__covalent_radius_pyykko_triple": [108.0, 73.0], "includesElement__density": [4.506, 2.34], "includesElement__dipole_polarizability": [100.0, 20.5], "includesElement__dipole_polarizability_unc": [10.0, 0.1], "includesElement__discovery_year": [1791, 1808], "includesElement__electron_affinity": [0.079, 0.279723], "includesElement__electronegativity_allred-rochow": [0.0001703071, 0.0003598616], "includesElement__electronegativity_cottrell-sutton": [0.1521899, 0.1748949], "includesElement__electronegativity_ghosh": [0.1233637, 0.184886], "includesElement__electronegativity_gordy": [0.02316176, 0.03058824], "includesElement__electronegativity_mulliken": [3.45356, 4.288871], "includesElement__electronegativity_nagle": [0.3419952, 0.5269739], "includesElement__electronegativity_pauling": [1.54, 2.04], "includesElement__electronegativity_sanderson": [0.4055462, 0.2546274], "includesElement__en_ghosh": [0.1233637, 0.184886], "includesElement__en_pauling": [1.54, 2.04], "includesElement__evaporation_heat": [422.6, 504.5], "includesElement__fusion_heat": [18.8, 23.6], "includesElement__glawe_number": [51, 86], "includesElement__group_id": [4, 13], "includesElement__heat_of_formation": [473.0, 565.0], "includesElement__is_radioactive": [false], "includesElement__lattice_constant": [2.95, 8.73], "includesElement__mendeleev_number": [43, 81], "includesElement__molar_heat_capacity": [25.06, 11.087], "includesElement__period": [4, 2], "includesElement__pettifor_number": [51, 86], "includesElement__specific_heat_capacity": [0.523, 1.026], "includesElement__vdw_radius": [211.0, 192.0], "includesElement__vdw_radius_alvarez": [246.0, 191.0], "includesElement__vdw_radius_mm3": [239.0, 215.0], "includesElement__vdw_radius_uff": [317.5, 408.3], "includesElement__abundance_sea": [0.001, 4.44], "includesElement__atomic_weight_uncertainty": [0.001], "includesElement__c6_gb": [1200.0, 99.2], "includesElement__covalent_radius_bragg": [140.0], "includesElement__electronegativity_allen": [8.17, 12.13], "includesElement__en_allen": [8.17, 12.13], "includesElement__metallic_radius": [132.0, 80.0], "includesElement__metallic_radius_c12": [147.0, 98.0], "includesElement__thermal_conductivity": [21.9, 27.4], "includesElement__vdw_radius_batsanov": [215.0, 180.0], "includesElement__c6": [1044.0, 99.5], "includesElement__gas_basicity": [853.7], "includesElement__proton_affinity": [876.0], "includesElement__vdw_radius_dreiding": [402.0], "includesElement__vdw_radius_truhlar": [192.0], "formula": ["B2Ti1"], "spacegroup": ["191"], "thermalConductivity": [110.252], "icsd": ["165124"], "band_gap": [0.0], "density": [4.506929], "density_atomic": [8.534207], "deprecated": [false], "efermi": [8.460499], "energy_above_hull": [0.0], "energy_per_atom": [-10.30972], "formation_energy_per_atom": [-1.099568], "homogeneous_poisson": [0.121], "is_gap_direct": [false], "is_magnetic": [false], "is_metal": [true], "is_stable": [true], "nelements": [2], "nsites": [3], "num_magnetic_sites": [0], "num_unique_magnetic_sites": [0], "theoretical": [false], "total_magnetization": [0.0], "total_magnetization_normalized_formula_units": [0.0], "total_magnetization_normalized_vol": [0.0], "uncorrected_energy_per_atom": [-10.30972], "universal_anisotropy": [0.144], "volume": [25.60262], "equilibrium_reaction_energy_per_atom": [-0.339539]}