{"includesElement": ["", "Zn", "Cl"], "includesElement___series_id": [8, 6], "includesElement__abundance_crust": [70.0, 145.0], "includesElement__atomic_number": [30, 17], "includesElement__atomic_radius": [135.0, 100.0], "includesElement__atomic_radius_rahm": [222.0, 206.0], "includesElement__atomic_volume": [9.2, 18.7], "includesElement__atomic_weight": [65.38, 35.45], "includesElement__covalent_radius_cordero": [122.0, 102.0], "includesElement__covalent_radius_pyykko": [118.0, 99.0], "includesElement__covalent_radius_pyykko_double": [120.0, 95.0], "includesElement__density": [7.134, 0.002898], "includesElement__dipole_polarizability": [38.67, 14.6], "includesElement__dipole_polarizability_unc": [0.3, 0.1], "includesElement__electronegativity_allred-rochow": [0.0003124102, 0.0006223855], "includesElement__electronegativity_cottrell-sutton": [0.1920011, 0.248226], "includesElement__electronegativity_ghosh": [0.1551518, 0.263803], "includesElement__electronegativity_gordy": [0.03686441, 0.06161616], "includesElement__electronegativity_mulliken": [4.6971, 8.290178], "includesElement__electronegativity_nagle": [0.6770213, 0.7826755], "includesElement__electronegativity_pauling": [1.65, 3.16], "includesElement__electronegativity_sanderson": [0.8100877, 0.8123773], "includesElement__en_ghosh": [0.1551518, 0.263803], "includesElement__en_pauling": [1.65, 3.16], "includesElement__evaporation_heat": [114.8, 20.41], "includesElement__fusion_heat": [7.28, 6.41], "includesElement__glawe_number": [74, 101], "includesElement__group_id": [12, 17], "includesElement__heat_of_formation": [130.4, 121.302], "includesElement__is_radioactive": [false], "includesElement__lattice_constant": [2.66, 6.24], "includesElement__mendeleev_number": [77, 107], "includesElement__molar_heat_capacity": [25.39, 33.949], "includesElement__period": [4, 3], "includesElement__pettifor_number": [76, 99], "includesElement__specific_heat_capacity": [0.388, 0.479], "includesElement__vdw_radius": [201.0, 175.0], "includesElement__vdw_radius_alvarez": [239.0, 182.0], "includesElement__vdw_radius_mm3": [229.0, 207.0], "includesElement__vdw_radius_uff": [276.3, 394.7], "includesElement__abundance_sea": [0.0049, 19400.0], "includesElement__atomic_weight_uncertainty": [0.02], "includesElement__c6_gb": [276.0, 97.1], "includesElement__covalent_radius_bragg": [132.0, 105.0], "includesElement__electronegativity_allen": [9.395, 16.97], "includesElement__en_allen": [9.395, 16.97], "includesElement__metallic_radius": [121.0], "includesElement__metallic_radius_c12": [134.0, 91.0], "includesElement__thermal_conductivity": [116.0, 0.009], "includesElement__vdw_radius_batsanov": [210.0, 180.0], "includesElement__c6": [284.0, 94.6], "includesElement__gas_basicity": [586.0, 490.1], "includesElement__proton_affinity": [608.6, 513.6], "includesElement__covalent_radius_pyykko_triple": [93.0], "includesElement__discovery_year": [1774], "includesElement__electron_affinity": [3.612725], "includesElement__vdw_radius_dreiding": [395.03], "includesElement__vdw_radius_bondi": [175.0], "includesElement__vdw_radius_rt": [176.0], "formula": ["Cl4Zn2"], "spacegroup": ["122"], "thermalConductivity": [3.49317], "icsd": ["15916"], "band_gap": [4.0533], "density": [2.926451], "density_atomic": [25.78281], "deprecated": [false], "efermi": [-1.533372], "energy_above_hull": [0.0], "energy_per_atom": [-8.362839], "formation_energy_per_atom": [-1.291012], "homogeneous_poisson": [0.18], "is_gap_direct": [true], "is_magnetic": [false], "is_metal": [false], "is_stable": [true], "nelements": [2], "nsites": [6], "num_magnetic_sites": [0], "num_unique_magnetic_sites": [0], "theoretical": [false], "total_magnetization": [0.0], "total_magnetization_normalized_formula_units": [0.0], "total_magnetization_normalized_vol": [0.0], "uncorrected_energy_per_atom": [-8.362839], "universal_anisotropy": [2.212], "volume": [154.6969], "cbm": [2.4682], "e_electronic": [2.866284], "e_ionic": [2.3309], "e_total": [5.197184], "equilibrium_reaction_energy_per_atom": [-1.291012], "n": [1.69301], "vbm": [-1.5851], "e_ij_max": [0.1121939]}