{"includesElement": ["", "Be", "Fe"], "includesElement___series_id": [4, 8], "includesElement__abundance_crust": [2.8, 56300.0], "includesElement__atomic_number": [4, 26], "includesElement__atomic_radius": [105.0, 140.0], "includesElement__atomic_radius_rahm": [219.0, 237.0], "includesElement__atomic_volume": [5.0, 7.1], "includesElement__atomic_weight": [9.012183, 55.845], "includesElement__covalent_radius_cordero": [96.0, 142.0], "includesElement__covalent_radius_pyykko": [102.0, 116.0], "includesElement__covalent_radius_pyykko_double": [90.0, 109.0], "includesElement__covalent_radius_pyykko_triple": [85.0, 102.0], "includesElement__density": [1.85, 7.87], "includesElement__dipole_polarizability": [37.74, 62.0], "includesElement__dipole_polarizability_unc": [0.03, 4.0], "includesElement__discovery_year": [1798], "includesElement__electron_affinity": [-2.4, 0.151], "includesElement__electronegativity_allred-rochow": [0.0001874279, 0.0002786861], "includesElement__electronegativity_cottrell-sutton": [0.1382666, 0.1797987], "includesElement__electronegativity_ghosh": [0.144986, 0.1392532], "includesElement__electronegativity_gordy": [0.01911765, 0.03232759], "includesElement__electronegativity_mulliken": [3.461349, 4.026734], "includesElement__electronegativity_nagle": [0.3756148, 0.5053195], "includesElement__electronegativity_pauling": [1.57, 1.83], "includesElement__electronegativity_sanderson": [0.1268473, 0.748727], "includesElement__en_ghosh": [0.144986, 0.1392532], "includesElement__en_pauling": [1.57, 1.83], "includesElement__evaporation_heat": [309.0, 340.0], "includesElement__fusion_heat": [12.21, 13.8], "includesElement__glawe_number": [77, 71], "includesElement__group_id": [2, 8], "includesElement__heat_of_formation": [324.0, 415.5], "includesElement__is_radioactive": [false], "includesElement__lattice_constant": [2.29, 2.87], "includesElement__mendeleev_number": [75, 59], "includesElement__molar_heat_capacity": [16.443, 25.1], "includesElement__period": [2, 4], "includesElement__pettifor_number": [77, 61], "includesElement__specific_heat_capacity": [1.825, 0.449], "includesElement__vdw_radius": [153.0, 204.0], "includesElement__vdw_radius_alvarez": [198.0, 244.0], "includesElement__vdw_radius_mm3": [223.0], "includesElement__vdw_radius_uff": [274.5, 291.2], "includesElement__abundance_sea": [5.6e-06, 0.002], "includesElement__atomic_weight_uncertainty": [5e-07, 0.002], "includesElement__c6_gb": [214.0, 548.0], "includesElement__covalent_radius_bragg": [115.0, 140.0], "includesElement__electronegativity_allen": [9.323, 10.64], "includesElement__en_allen": [9.323, 10.64], "includesElement__metallic_radius": [89.0, 117.0], "includesElement__metallic_radius_c12": [112.0, 126.0], "includesElement__thermal_conductivity": [201.0, 80.4], "includesElement__vdw_radius_batsanov": [190.0, 205.0], "includesElement__c6": [227.0, 482.0], "includesElement__is_monoisotopic": [true], "includesElement__vdw_radius_truhlar": [153.0], "includesElement__gas_basicity": [731.1], "includesElement__proton_affinity": [754.0], "formula": ["Be8Fe4"], "spacegroup": ["194"], "thermalConductivity": [28.6224], "icsd": ["106318"], "band_gap": [0.0], "density": [4.749959], "density_atomic": [8.608002], "deprecated": [false], "efermi": [4.815095], "energy_above_hull": [0.0], "energy_per_atom": [-5.593873], "formation_energy_per_atom": [-0.2775905], "homogeneous_poisson": [0.142], "is_gap_direct": [false], "is_magnetic": [true], "is_metal": [true], "is_stable": [true], "nelements": [2], "nsites": [12], "num_magnetic_sites": [4], "num_unique_magnetic_sites": [1], "theoretical": [false], "total_magnetization": [8.392251], "total_magnetization_normalized_formula_units": [2.098063], "total_magnetization_normalized_vol": [0.08124467], "uncorrected_energy_per_atom": [-7.927284], "universal_anisotropy": [0.017], "volume": [103.296], "equilibrium_reaction_energy_per_atom": [-0.09182405]}