{"includesElement": ["", "H", "Rb"], "includesElement___series_id": [1, 3], "includesElement__abundance_crust": [1400.0, 90.0], "includesElement__atomic_number": [1, 37], "includesElement__atomic_radius": [25.0, 235.0], "includesElement__atomic_radius_rahm": [154.0, 240.0], "includesElement__atomic_volume": [14.1, 55.9], "includesElement__atomic_weight": [1.008, 85.4678], "includesElement__covalent_radius_cordero": [31.0, 220.0], "includesElement__covalent_radius_pyykko": [32.0, 210.0], "includesElement__density": [8.2e-05, 1.53], "includesElement__dipole_polarizability": [4.50711, 319.8], "includesElement__dipole_polarizability_unc": [3e-05, 0.3], "includesElement__discovery_year": [1766, 1861], "includesElement__electron_affinity": [0.754195, 0.48592], "includesElement__electronegativity_allred-rochow": [0.0009765625, 4.988662e-05], "includesElement__electronegativity_cottrell-sutton": [0.1767767, 0.1023533], "includesElement__electronegativity_ghosh": [0.2638, 0.104686], "includesElement__electronegativity_gordy": [0.03125, 0.01047619], "includesElement__electronegativity_mulliken": [7.176315, 2.331524], "includesElement__electronegativity_nagle": [0.6053882, 0.1462314], "includesElement__electronegativity_pauling": [2.2, 0.82], "includesElement__electronegativity_sanderson": [2.187771, 0.1764136], "includesElement__en_ghosh": [0.2638, 0.104686], "includesElement__en_pauling": [2.2, 0.82], "includesElement__evaporation_heat": [0.904, 75.8], "includesElement__fusion_heat": [0.117, 2.2], "includesElement__glawe_number": [103, 9], "includesElement__group_id": [1], "includesElement__heat_of_formation": [217.998, 80.9], "includesElement__is_radioactive": [false], "includesElement__lattice_constant": [3.75, 5.59], "includesElement__mendeleev_number": [105, 4], "includesElement__molar_heat_capacity": [28.836, 31.06], "includesElement__period": [1, 5], "includesElement__pettifor_number": [103, 9], "includesElement__specific_heat_capacity": [14.304, 0.363], "includesElement__vdw_radius": [110.0, 303.0], "includesElement__vdw_radius_alvarez": [120.0, 321.0], "includesElement__vdw_radius_mm3": [162.0, 325.0], "includesElement__vdw_radius_uff": [288.6, 411.4], "includesElement__abundance_sea": [108000.0, 0.12], "includesElement__c6_gb": [6.51, 4660.0], "includesElement__electronegativity_allen": [13.61, 4.177], "includesElement__en_allen": [13.61, 4.177], "includesElement__metallic_radius_c12": [78.0, 248.0], "includesElement__thermal_conductivity": [0.1815, 58.2], "includesElement__c6": [6.499027, 4769.0], "includesElement__vdw_radius_dreiding": [319.5], "includesElement__vdw_radius_bondi": [120.0], "includesElement__vdw_radius_rt": [110.0], "includesElement__covalent_radius_pyykko_double": [202.0], "includesElement__atomic_weight_uncertainty": [0.0003], "includesElement__covalent_radius_bragg": [225.0], "includesElement__metallic_radius": [216.0], "includesElement__vdw_radius_batsanov": [290.0], "includesElement__vdw_radius_truhlar": [303.0], "formula": ["H1Rb1", "HRb"], "mp_id": ["mp-24721"], "spacegroup": ["225"], "thermalConductivity": [1.62749, 5.935994, 6.831581], "icsd": ["183292"], "band_gap": [2.9163], "density": [2.648368], "density_atomic": [27.11034], "deprecated": [false], "efermi": [-1.068597], "energy_above_hull": [0.0], "energy_per_atom": [-2.42332], "formation_energy_per_atom": [-0.2354698], "homogeneous_poisson": [0.2], "is_gap_direct": [true], "is_magnetic": [false], "is_metal": [false], "is_stable": [true], "nelements": [2], "nsites": [2], "num_magnetic_sites": [0], "num_unique_magnetic_sites": [0], "theoretical": [false], "total_magnetization": [0.0], "total_magnetization_normalized_formula_units": [0.0], "total_magnetization_normalized_vol": [0.0], "uncorrected_energy_per_atom": [-8.943937], "universal_anisotropy": [0.041], "volume": [54.22069], "cbm": [1.8302], "e_electronic": [2.798748], "e_ionic": [6.079212], "e_total": [8.877961], "equilibrium_reaction_energy_per_atom": [-0.2354698], "n": [1.672946], "vbm": [-1.0861]}