{"includesElement": ["", "O", "Ce"], "includesElement___series_id": [1, 9], "includesElement__abundance_crust": [461000.0, 66.5], "includesElement__atomic_number": [8, 58], "includesElement__atomic_radius": [60.0, 185.0], "includesElement__atomic_radius_rahm": [171.0, 282.0], "includesElement__atomic_volume": [14.0, 21.0], "includesElement__atomic_weight": [15.999, 140.116], "includesElement__covalent_radius_cordero": [66.0, 204.0], "includesElement__covalent_radius_pyykko": [63.0, 163.0], "includesElement__covalent_radius_pyykko_double": [57.0, 137.0], "includesElement__covalent_radius_pyykko_triple": [53.0, 131.0], "includesElement__density": [0.001308, 6.77], "includesElement__dipole_polarizability": [5.3, 205.0], "includesElement__dipole_polarizability_unc": [0.2, 20.0], "includesElement__discovery_year": [1774, 1803], "includesElement__electron_affinity": [1.461113, 0.65], "includesElement__electronegativity_allred-rochow": [0.001146384, 0.0001129135], "includesElement__electronegativity_cottrell-sutton": [0.2687419, 0.1356647], "includesElement__electronegativity_ghosh": [0.304575, 0.16761], "includesElement__electronegativity_gordy": [0.07222222, 0.01840491], "includesElement__electronegativity_mulliken": [7.539584, 3.0943], "includesElement__electronegativity_nagle": [1.042218, 0.2692167], "includesElement__electronegativity_pauling": [3.44, 1.12], "includesElement__electronegativity_sanderson": [0.9416494, 0.5356179], "includesElement__en_ghosh": [0.304575, 0.16761], "includesElement__en_pauling": [3.44, 1.12], "includesElement__glawe_number": [97, 31], "includesElement__group_id": [16], "includesElement__heat_of_formation": [249.229, 420.1], "includesElement__is_radioactive": [false], "includesElement__lattice_constant": [6.83, 5.16], "includesElement__mendeleev_number": [99, 15], "includesElement__molar_heat_capacity": [29.378, 26.94], "includesElement__period": [2, 6], "includesElement__pettifor_number": [101, 32], "includesElement__specific_heat_capacity": [0.918, 0.192], "includesElement__vdw_radius": [152.0, 242.0], "includesElement__vdw_radius_alvarez": [150.0, 288.0], "includesElement__vdw_radius_mm3": [182.0, 274.0], "includesElement__vdw_radius_uff": [350.0, 355.6], "includesElement__abundance_sea": [857000.0, 1.2e-06], "includesElement__c6_gb": [16.7, 3480.0], "includesElement__covalent_radius_bragg": [65.0], "includesElement__electronegativity_allen": [21.36], "includesElement__en_allen": [21.36], "includesElement__thermal_conductivity": [0.027, 11.3], "includesElement__vdw_radius_batsanov": [155.0], "includesElement__c6": [15.6], "includesElement__vdw_radius_dreiding": [340.46], "includesElement__gas_basicity": [459.6], "includesElement__proton_affinity": [485.2], "includesElement__vdw_radius_bondi": [152.0], "includesElement__vdw_radius_rt": [158.0], "includesElement__evaporation_heat": [398.0], "includesElement__fusion_heat": [5.2], "includesElement__atomic_weight_uncertainty": [0.001], "formula": ["Ce2O4"], "spacegroup": ["136"], "thermalConductivity": [6.72636], "icsd": ["169031"], "band_gap": [1.9046], "density": [5.962116], "density_atomic": [15.97886], "deprecated": [false], "efermi": [3.329555], "energy_above_hull": [0.1193145], "energy_per_atom": [-17.89482], "formation_energy_per_atom": [-3.640844], "homogeneous_poisson": [0.336], "is_gap_direct": [false], "is_magnetic": [false], "is_metal": [false], "is_stable": [false], "nelements": [2], "nsites": [6], "num_magnetic_sites": [0], "num_unique_magnetic_sites": [0], "theoretical": [true], "total_magnetization": [0.0105627], "total_magnetization_normalized_formula_units": [0.00528135], "total_magnetization_normalized_vol": [0.0001101737], "uncorrected_energy_per_atom": [-8.627486], "universal_anisotropy": [3.702], "volume": [95.87313], "cbm": [5.1975], "vbm": [3.2929]}