{"includesElement": ["", "Ce", "Rh"], "includesElement___series_id": [9, 8], "includesElement__abundance_crust": [66.5, 0.001], "includesElement__atomic_number": [58, 45], "includesElement__atomic_radius": [185.0, 135.0], "includesElement__atomic_radius_rahm": [282.0, 233.0], "includesElement__atomic_volume": [21.0, 8.3], "includesElement__atomic_weight": [140.116, 102.9055], "includesElement__covalent_radius_cordero": [204.0, 142.0], "includesElement__covalent_radius_pyykko": [163.0, 125.0], "includesElement__covalent_radius_pyykko_double": [137.0, 110.0], "includesElement__covalent_radius_pyykko_triple": [131.0, 106.0], "includesElement__density": [6.77, 12.4], "includesElement__dipole_polarizability": [205.0, 66.0], "includesElement__dipole_polarizability_unc": [20.0, 10.0], "includesElement__discovery_year": [1803], "includesElement__electron_affinity": [0.65, 1.137], "includesElement__electronegativity_allred-rochow": [0.0001129135, 0.0002176], "includesElement__electronegativity_cottrell-sutton": [0.1356647, 0.1649242], "includesElement__electronegativity_ghosh": [0.16761, 0.1408379], "includesElement__electronegativity_gordy": [0.01840491, 0.0272], "includesElement__electronegativity_mulliken": [3.0943, 4.29795], "includesElement__electronegativity_nagle": [0.2692167, 0.5147142], "includesElement__electronegativity_pauling": [1.12, 2.28], "includesElement__electronegativity_sanderson": [0.5356179, 0.9761915], "includesElement__en_ghosh": [0.16761, 0.1408379], "includesElement__en_pauling": [1.12, 2.28], "includesElement__evaporation_heat": [398.0, 494.0], "includesElement__fusion_heat": [5.2, 21.8], "includesElement__glawe_number": [31, 63], "includesElement__heat_of_formation": [420.1, 556.0], "includesElement__is_radioactive": [false], "includesElement__lattice_constant": [5.16, 3.8], "includesElement__mendeleev_number": [15, 64], "includesElement__molar_heat_capacity": [26.94, 24.98], "includesElement__period": [6, 5], "includesElement__pettifor_number": [32, 66], "includesElement__specific_heat_capacity": [0.192, 0.243], "includesElement__vdw_radius": [242.0, 210.0], "includesElement__vdw_radius_alvarez": [288.0, 244.0], "includesElement__vdw_radius_mm3": [274.0, 234.0], "includesElement__vdw_radius_uff": [355.6, 292.9], "includesElement__abundance_sea": [1.2e-06], "includesElement__atomic_weight_uncertainty": [0.001, 2e-05], "includesElement__c6_gb": [3480.0, 708.0], "includesElement__thermal_conductivity": [11.3, 150.0], "includesElement__group_id": [9], "includesElement__electronegativity_allen": [9.259], "includesElement__en_allen": [9.259], "includesElement__metallic_radius": [125.0], "includesElement__metallic_radius_c12": [134.0], "includesElement__vdw_radius_batsanov": [200.0], "includesElement__is_monoisotopic": [true], "includesElement__gas_basicity": [745.4], "includesElement__proton_affinity": [768.0], "formula": ["Ce2Rh2"], "spacegroup": ["63"], "thermalConductivity": [2.03371], "icsd": ["604327"], "band_gap": [0.0], "density": [9.282582], "density_atomic": [21.73677], "deprecated": [false], "efermi": [7.761522], "energy_above_hull": [0.0], "energy_per_atom": [-28.29312], "formation_energy_per_atom": [-0.8046889], "is_gap_direct": [false], "is_magnetic": [true], "is_metal": [true], "is_stable": [true], "nelements": [2], "nsites": [4], "num_magnetic_sites": [2], "num_unique_magnetic_sites": [1], "theoretical": [false], "total_magnetization": [0.8769081], "total_magnetization_normalized_formula_units": [0.438454], "total_magnetization_normalized_vol": [0.01008554], "uncorrected_energy_per_atom": [-28.29312], "volume": [86.94708], "equilibrium_reaction_energy_per_atom": [-0.2327592]}