{"includesElement": ["", "Zr", "Ru"], "includesElement___series_id": [8], "includesElement__abundance_crust": [165.0, 0.001], "includesElement__atomic_number": [40, 44], "includesElement__atomic_radius": [155.0, 130.0], "includesElement__atomic_radius_rahm": [269.0, 237.0], "includesElement__atomic_volume": [14.1, 8.3], "includesElement__atomic_weight": [91.224, 101.07], "includesElement__covalent_radius_cordero": [175.0, 146.0], "includesElement__covalent_radius_pyykko": [154.0, 125.0], "includesElement__covalent_radius_pyykko_double": [127.0, 114.0], "includesElement__covalent_radius_pyykko_triple": [121.0, 103.0], "includesElement__density": [6.52, 12.1], "includesElement__dipole_polarizability": [112.0, 72.0], "includesElement__dipole_polarizability_unc": [13.0, 10.0], "includesElement__discovery_year": [1789, 1844], "includesElement__electron_affinity": [0.426, 1.05], "includesElement__electronegativity_allred-rochow": [0.0001328217, 0.000208], "includesElement__electronegativity_cottrell-sutton": [0.1430194, 0.1612452], "includesElement__electronegativity_ghosh": [0.1248887, 0.1376494], "includesElement__electronegativity_gordy": [0.02045455, 0.026], "includesElement__electronegativity_mulliken": [3.52995, 4.20525], "includesElement__electronegativity_nagle": [0.3293169, 0.4807499], "includesElement__electronegativity_pauling": [1.33, 2.2], "includesElement__electronegativity_sanderson": [0.4744467, 0.9579373], "includesElement__en_ghosh": [0.1248887, 0.1376494], "includesElement__en_pauling": [1.33, 2.2], "includesElement__evaporation_heat": [567.0], "includesElement__fusion_heat": [19.2, 25.5], "includesElement__glawe_number": [49, 61], "includesElement__group_id": [4, 8], "includesElement__heat_of_formation": [610.0, 650.6], "includesElement__is_radioactive": [false], "includesElement__lattice_constant": [3.23, 2.7], "includesElement__mendeleev_number": [44, 60], "includesElement__molar_heat_capacity": [25.36, 24.06], "includesElement__period": [5], "includesElement__pettifor_number": [49, 63], "includesElement__specific_heat_capacity": [0.278, 0.238], "includesElement__vdw_radius": [223.0, 213.0], "includesElement__vdw_radius_alvarez": [252.0, 246.0], "includesElement__vdw_radius_mm3": [254.0, 234.0], "includesElement__vdw_radius_uff": [312.4, 296.3], "includesElement__abundance_sea": [3e-05, 7e-07], "includesElement__atomic_weight_uncertainty": [0.002, 0.02], "includesElement__c6_gb": [1360.0, 809.0], "includesElement__electronegativity_allen": [7.808, 9.1], "includesElement__en_allen": [7.808, 9.1], "includesElement__metallic_radius": [145.0, 125.0], "includesElement__metallic_radius_c12": [160.0, 134.0], "includesElement__thermal_conductivity": [22.7, 117.0], "includesElement__vdw_radius_batsanov": [230.0, 205.0], "includesElement__gas_basicity": [751.4], "includesElement__proton_affinity": [774.0], "formula": ["Ru3Zr1"], "spacegroup": ["221"], "thermalConductivity": [10.5979], "icsd": ["185641"], "band_gap": [0.0], "density": [10.42278], "density_atomic": [15.71013], "deprecated": [false], "efermi": [6.97877], "energy_above_hull": [0.178167], "energy_per_atom": [-24.94712], "formation_energy_per_atom": [-0.1912677], "homogeneous_poisson": [0.33], "is_gap_direct": [false], "is_magnetic": [false], "is_metal": [true], "is_stable": [false], "nelements": [2], "nsites": [4], "num_magnetic_sites": [0], "num_unique_magnetic_sites": [0], "theoretical": [true], "total_magnetization": [0.0005944], "total_magnetization_normalized_formula_units": [0.0005944], "total_magnetization_normalized_vol": [9.458864e-06], "uncorrected_energy_per_atom": [-9.24335], "universal_anisotropy": [0.688], "volume": [62.84053]}