{"includesElement": ["", "Hf", "Au"], "includesElement___series_id": [8], "includesElement__abundance_crust": [3.0, 0.004], "includesElement__atomic_number": [72, 79], "includesElement__atomic_radius": [155.0, 135.0], "includesElement__atomic_radius_rahm": [264.0, 226.0], "includesElement__atomic_volume": [13.6, 10.2], "includesElement__atomic_weight": [178.49, 196.9666], "includesElement__covalent_radius_cordero": [175.0, 136.0], "includesElement__covalent_radius_pyykko": [152.0, 124.0], "includesElement__covalent_radius_pyykko_double": [128.0, 121.0], "includesElement__covalent_radius_pyykko_triple": [122.0, 123.0], "includesElement__density": [13.3, 19.3], "includesElement__dipole_polarizability": [103.0, 36.0], "includesElement__dipole_polarizability_unc": [6.0, 3.0], "includesElement__discovery_year": [1923], "includesElement__electron_affinity": [0.014, 2.30863], "includesElement__electronegativity_allred-rochow": [0.00013634, 0.0002406348], "includesElement__electronegativity_cottrell-sutton": [0.1439572, 0.1727388], "includesElement__electronegativity_ghosh": [0.229987, 0.26137], "includesElement__electronegativity_gordy": [0.02072368, 0.02983871], "includesElement__electronegativity_mulliken": [3.419535, 5.767091], "includesElement__electronegativity_nagle": [0.3386421, 0.67354], "includesElement__electronegativity_pauling": [1.3, 2.4], "includesElement__electronegativity_sanderson": [0.7352125, 1.426701], "includesElement__en_ghosh": [0.229987, 0.26137], "includesElement__en_pauling": [1.3, 2.4], "includesElement__evaporation_heat": [575.0, 340.0], "includesElement__fusion_heat": [25.1, 12.68], "includesElement__glawe_number": [50, 66], "includesElement__group_id": [4, 11], "includesElement__heat_of_formation": [618.4, 368.2], "includesElement__is_radioactive": [false], "includesElement__lattice_constant": [3.2, 4.08], "includesElement__mendeleev_number": [45, 73], "includesElement__molar_heat_capacity": [25.73, 25.418], "includesElement__period": [6], "includesElement__pettifor_number": [50, 70], "includesElement__specific_heat_capacity": [0.144, 0.129], "includesElement__vdw_radius": [223.0, 214.0], "includesElement__vdw_radius_alvarez": [263.0, 232.0], "includesElement__vdw_radius_mm3": [253.0, 243.0], "includesElement__vdw_radius_uff": [314.1, 329.3], "includesElement__abundance_sea": [7e-06, 4e-06], "includesElement__atomic_weight_uncertainty": [0.02, 5e-06], "includesElement__c6_gb": [1040.0, 427.0], "includesElement__electronegativity_allen": [6.83, 11.33], "includesElement__en_allen": [6.83, 11.33], "includesElement__metallic_radius": [144.0, 134.0], "includesElement__metallic_radius_c12": [159.0, 144.0], "includesElement__thermal_conductivity": [23.0, 318.0], "includesElement__vdw_radius_batsanov": [225.0, 210.0], "includesElement__is_monoisotopic": [true], "formula": ["Au1Hf2"], "spacegroup": ["139"], "thermalConductivity": [7.7815], "icsd": ["58471"], "band_gap": [0.0], "density": [15.20343], "density_atomic": [20.16759], "deprecated": [false], "efermi": [5.301976], "energy_above_hull": [0.0], "energy_per_atom": [-47.44142], "formation_energy_per_atom": [-0.4788261], "homogeneous_poisson": [0.309], "is_gap_direct": [false], "is_magnetic": [false], "is_metal": [true], "is_stable": [true], "nelements": [2], "nsites": [3], "num_magnetic_sites": [0], "num_unique_magnetic_sites": [0], "theoretical": [false], "total_magnetization": [0.0], "total_magnetization_normalized_formula_units": [0.0], "total_magnetization_normalized_vol": [0.0], "uncorrected_energy_per_atom": [-47.44142], "universal_anisotropy": [0.501], "volume": [60.50278], "equilibrium_reaction_energy_per_atom": [-0.07497364]}