{"includesElement": ["", "Cd", "P"], "includesElement___series_id": [8, 1], "includesElement__abundance_crust": [0.15, 1050.0], "includesElement__atomic_number": [48, 15], "includesElement__atomic_radius": [155.0, 100.0], "includesElement__atomic_radius_rahm": [238.0, 223.0], "includesElement__atomic_volume": [13.1, 17.0], "includesElement__atomic_weight": [112.414, 30.97376], "includesElement__covalent_radius_cordero": [144.0, 107.0], "includesElement__covalent_radius_pyykko": [136.0, 111.0], "includesElement__covalent_radius_pyykko_double": [144.0, 102.0], "includesElement__density": [8.69, 1.823], "includesElement__dipole_polarizability": [46.0, 25.0], "includesElement__dipole_polarizability_unc": [2.0, 1.0], "includesElement__discovery_year": [1817, 1669], "includesElement__electronegativity_allred-rochow": [0.000235186, 0.0003895788], "includesElement__electronegativity_cottrell-sutton": [0.1788443, 0.2079501], "includesElement__electronegativity_ghosh": [0.1504066, 0.206931], "includesElement__electronegativity_gordy": [0.03198529, 0.04324324], "includesElement__electronegativity_mulliken": [4.496911, 5.616646], "includesElement__electronegativity_nagle": [0.6389612, 0.5848035], "includesElement__electronegativity_pauling": [1.69, 2.19], "includesElement__electronegativity_sanderson": [0.801562, 0.4510269], "includesElement__en_ghosh": [0.1504066, 0.206931], "includesElement__en_pauling": [1.69, 2.19], "includesElement__evaporation_heat": [59.1, 49.8], "includesElement__fusion_heat": [6.11, 2.51], "includesElement__glawe_number": [75, 89], "includesElement__group_id": [12, 15], "includesElement__heat_of_formation": [111.8, 316.5], "includesElement__is_radioactive": [false], "includesElement__lattice_constant": [2.98, 7.17], "includesElement__mendeleev_number": [78, 94], "includesElement__molar_heat_capacity": [26.02, 23.824], "includesElement__period": [5, 3], "includesElement__pettifor_number": [75, 90], "includesElement__specific_heat_capacity": [0.232, 0.769], "includesElement__vdw_radius": [218.0, 180.0], "includesElement__vdw_radius_alvarez": [249.0, 190.0], "includesElement__vdw_radius_mm3": [250.0, 222.0], "includesElement__vdw_radius_uff": [284.8, 414.7], "includesElement__abundance_sea": [0.00011, 0.06], "includesElement__atomic_weight_uncertainty": [0.004, 5e-09], "includesElement__c6_gb": [405.0, 187.0], "includesElement__covalent_radius_bragg": [160.0], "includesElement__electronegativity_allen": [8.995, 13.33], "includesElement__en_allen": [8.995, 13.33], "includesElement__metallic_radius": [138.0, 110.0], "includesElement__metallic_radius_c12": [151.0, 128.0], "includesElement__thermal_conductivity": [96.9], "includesElement__vdw_radius_batsanov": [220.0, 195.0], "includesElement__covalent_radius_pyykko_triple": [94.0], "includesElement__electron_affinity": [0.746607], "includesElement__c6": [185.0], "includesElement__is_monoisotopic": [true], "includesElement__vdw_radius_dreiding": [415.0], "includesElement__gas_basicity": [604.8], "includesElement__proton_affinity": [626.8], "includesElement__vdw_radius_bondi": [180.0], "formula": ["Cd4P8"], "spacegroup": ["33"], "thermalConductivity": [2.00221], "icsd": ["26199"], "band_gap": [1.4898], "density": [4.127469], "density_atomic": [23.3823], "deprecated": [false], "efermi": [2.863259], "energy_above_hull": [0.0008412788], "energy_per_atom": [-12.88352], "formation_energy_per_atom": [-0.1804781], "homogeneous_poisson": [0.28], "is_gap_direct": [false], "is_magnetic": [false], "is_metal": [false], "is_stable": [false], "nelements": [2], "nsites": [12], "num_magnetic_sites": [0], "num_unique_magnetic_sites": [0], "theoretical": [false], "total_magnetization": [0.0], "total_magnetization_normalized_formula_units": [0.0], "total_magnetization_normalized_vol": [0.0], "uncorrected_energy_per_atom": [-12.88352], "universal_anisotropy": [0.178], "volume": [280.5876], "cbm": [4.3362], "e_electronic": [9.660705], "e_ionic": [2.087435], "e_total": [11.74814], "n": [3.108167], "vbm": [2.8464], "e_ij_max": [0.08903702]}