{"includesElement": ["", "Sb", "Th"], "includesElement___series_id": [5, 10], "includesElement__abundance_crust": [0.2, 9.6], "includesElement__atomic_number": [51, 90], "includesElement__atomic_radius": [145.0, 180.0], "includesElement__atomic_radius_rahm": [246.0, 288.0], "includesElement__atomic_volume": [18.4, 19.8], "includesElement__atomic_weight": [121.76, 232.0377], "includesElement__covalent_radius_cordero": [139.0, 206.0], "includesElement__covalent_radius_pyykko": [140.0, 175.0], "includesElement__covalent_radius_pyykko_double": [133.0, 143.0], "includesElement__covalent_radius_pyykko_triple": [127.0, 136.0], "includesElement__density": [6.68, 11.7], "includesElement__dipole_polarizability": [43.0, 217.0], "includesElement__dipole_polarizability_unc": [2.0, 54.0], "includesElement__electron_affinity": [1.046], "includesElement__electronegativity_allred-rochow": [0.0003214286, 0.0001028571], "includesElement__electronegativity_cottrell-sutton": [0.212132, 0.1341641], "includesElement__electronegativity_ghosh": [0.1918774, 0.10277], "includesElement__electronegativity_gordy": [0.045, 0.018], "includesElement__electronegativity_mulliken": [4.827195, 3.15335], "includesElement__electronegativity_nagle": [0.4880907, 0.2641598], "includesElement__electronegativity_pauling": [2.05, 1.3], "includesElement__electronegativity_sanderson": [0.7762722, 0.5557019], "includesElement__en_ghosh": [0.1918774, 0.10277], "includesElement__en_pauling": [2.05, 1.3], "includesElement__evaporation_heat": [195.2, 513.7], "includesElement__fusion_heat": [20.08, 16.11], "includesElement__glawe_number": [91, 34], "includesElement__group_id": [15], "includesElement__heat_of_formation": [264.4, 602.0], "includesElement__is_radioactive": [false, true], "includesElement__lattice_constant": [4.51, 5.08], "includesElement__mendeleev_number": [96, 16], "includesElement__molar_heat_capacity": [25.23, 27.32], "includesElement__period": [5, 7], "includesElement__pettifor_number": [88, 47], "includesElement__specific_heat_capacity": [0.207, 0.118], "includesElement__vdw_radius": [206.0, 245.0], "includesElement__vdw_radius_alvarez": [247.0, 293.0], "includesElement__vdw_radius_mm3": [252.0, 274.0], "includesElement__vdw_radius_uff": [442.0, 339.6], "includesElement__abundance_sea": [0.00024, 1e-06], "includesElement__atomic_weight_uncertainty": [0.001, 0.0004], "includesElement__c6_gb": [504.0], "includesElement__covalent_radius_bragg": [140.0], "includesElement__electronegativity_allen": [11.74], "includesElement__en_allen": [11.74], "includesElement__metallic_radius": [139.0], "includesElement__metallic_radius_c12": [166.0], "includesElement__thermal_conductivity": [24.43], "includesElement__vdw_radius_batsanov": [220.0, 240.0], "includesElement__c6": [492.0], "includesElement__vdw_radius_dreiding": [435.0], "includesElement__vdw_radius_truhlar": [206.0], "includesElement__discovery_year": [1828], "formula": ["Sb1Th1"], "spacegroup": ["221"], "thermalConductivity": [4.81521], "icsd": ["52316"], "band_gap": [0.0], "density": [10.20394], "density_atomic": [28.78769], "deprecated": [false], "efermi": [8.193156], "energy_above_hull": [0.08840687], "energy_per_atom": [-50.58537], "formation_energy_per_atom": [-0.994586], "homogeneous_poisson": [0.328], "is_gap_direct": [false], "is_magnetic": [false], "is_metal": [true], "is_stable": [false], "nelements": [2], "nsites": [2], "num_magnetic_sites": [0], "num_unique_magnetic_sites": [0], "theoretical": [false], "total_magnetization": [0.0796723], "total_magnetization_normalized_formula_units": [0.0796723], "total_magnetization_normalized_vol": [0.001383791], "uncorrected_energy_per_atom": [-6.586296], "universal_anisotropy": [0.0], "volume": [57.57537]}