{"includesElement": ["", "As", "Er"], "includesElement___series_id": [5, 9], "includesElement__abundance_crust": [1.8, 3.5], "includesElement__atomic_number": [33, 68], "includesElement__atomic_radius": [115.0, 175.0], "includesElement__atomic_radius_rahm": [231.0, 272.0], "includesElement__atomic_volume": [13.1, 18.4], "includesElement__atomic_weight": [74.92159, 167.259], "includesElement__covalent_radius_cordero": [119.0, 189.0], "includesElement__covalent_radius_pyykko": [121.0, 165.0], "includesElement__covalent_radius_pyykko_double": [114.0, 133.0], "includesElement__covalent_radius_pyykko_triple": [106.0], "includesElement__density": [5.75, 9.07], "includesElement__dipole_polarizability": [30.0, 150.0], "includesElement__dipole_polarizability_unc": [1.0, 10.0], "includesElement__electron_affinity": [0.804], "includesElement__electronegativity_allred-rochow": [0.0004302985, 0.0001046832], "includesElement__electronegativity_cottrell-sutton": [0.22818, 0.1314257], "includesElement__electronegativity_ghosh": [0.2068208, 0.212261], "includesElement__electronegativity_gordy": [0.05206612, 0.01727273], "includesElement__electronegativity_mulliken": [5.2965, 3.05385], "includesElement__electronegativity_nagle": [0.5503212, 0.4536061], "includesElement__electronegativity_pauling": [2.18, 1.24], "includesElement__electronegativity_sanderson": [0.8253373, 0.5576573], "includesElement__en_ghosh": [0.2068208, 0.212261], "includesElement__en_pauling": [2.18, 1.24], "includesElement__evaporation_heat": [32.4, 317.0], "includesElement__glawe_number": [90, 22], "includesElement__group_id": [15], "includesElement__heat_of_formation": [302.5, 316.4], "includesElement__is_radioactive": [false], "includesElement__lattice_constant": [4.13, 3.56], "includesElement__mendeleev_number": [95, 35], "includesElement__molar_heat_capacity": [24.64, 28.12], "includesElement__period": [4, 6], "includesElement__pettifor_number": [89, 23], "includesElement__specific_heat_capacity": [0.329, 0.168], "includesElement__vdw_radius": [185.0, 229.0], "includesElement__vdw_radius_alvarez": [188.0, 283.0], "includesElement__vdw_radius_mm3": [236.0, 267.0], "includesElement__vdw_radius_uff": [423.0, 339.1], "includesElement__abundance_sea": [0.0037, 8.7e-07], "includesElement__atomic_weight_uncertainty": [6e-06, 0.003], "includesElement__c6_gb": [260.0, 2150.0], "includesElement__covalent_radius_bragg": [126.0], "includesElement__electronegativity_allen": [13.08], "includesElement__en_allen": [13.08], "includesElement__metallic_radius": [121.0], "includesElement__metallic_radius_c12": [148.0], "includesElement__vdw_radius_batsanov": [205.0], "includesElement__c6": [246.0], "includesElement__is_monoisotopic": [true], "includesElement__vdw_radius_dreiding": [415.0], "includesElement__vdw_radius_bondi": [185.0], "includesElement__discovery_year": [1843], "formula": ["As1Er1"], "spacegroup": ["225"], "thermalConductivity": [14.8379], "icsd": ["167762"], "band_gap": [0.0], "density": [8.467903], "density_atomic": [23.74557], "deprecated": [false], "efermi": [4.228541], "energy_above_hull": [0.0], "energy_per_atom": [-26.09793], "formation_energy_per_atom": [-1.781448], "homogeneous_poisson": [0.224], "is_gap_direct": [false], "is_magnetic": [false], "is_metal": [true], "is_stable": [true], "nelements": [2], "nsites": [2], "num_magnetic_sites": [0], "num_unique_magnetic_sites": [0], "theoretical": [false], "total_magnetization": [2e-07], "total_magnetization_normalized_formula_units": [2e-07], "total_magnetization_normalized_vol": [4.211312e-09], "uncorrected_energy_per_atom": [-26.09793], "universal_anisotropy": [0.634], "volume": [47.49114], "equilibrium_reaction_energy_per_atom": [-1.781448]}