{"includesElement": ["", "O", "K", "Nb"], "includesElement___series_id": [1, 3, 8], "includesElement__abundance_crust": [461000.0, 20900.0, 20.0], "includesElement__atomic_number": [8, 19, 41], "includesElement__atomic_radius": [60.0, 220.0, 145.0], "includesElement__atomic_radius_rahm": [171.0, 234.0, 251.0], "includesElement__atomic_volume": [14.0, 45.3, 10.8], "includesElement__atomic_weight": [15.999, 39.0983, 92.90637], "includesElement__covalent_radius_cordero": [66.0, 203.0, 164.0], "includesElement__covalent_radius_pyykko": [63.0, 196.0, 147.0], "includesElement__covalent_radius_pyykko_double": [57.0, 193.0, 125.0], "includesElement__covalent_radius_pyykko_triple": [53.0, 116.0], "includesElement__density": [0.001308, 0.89, 8.57], "includesElement__dipole_polarizability": [5.3, 289.7, 98.0], "includesElement__dipole_polarizability_unc": [0.2, 0.3, 8.0], "includesElement__discovery_year": [1774, 1807, 1801], "includesElement__electron_affinity": [1.461113, 0.50147, 0.917406], "includesElement__electronegativity_allred-rochow": [0.001146384, 5.726781e-05, 0.0001295756], "includesElement__electronegativity_cottrell-sutton": [0.2687419, 0.1059457, 0.1380131], "includesElement__electronegativity_ghosh": [0.304575, 0.0981896, 0.1280782], "includesElement__electronegativity_gordy": [0.07222222, 0.01122449, 0.01904762], "includesElement__electronegativity_mulliken": [7.539584, 2.421067, 3.838128], "includesElement__electronegativity_nagle": [1.042218, 0.1511299, 0.3708924], "includesElement__electronegativity_pauling": [3.44, 0.82, 1.6], "includesElement__electronegativity_sanderson": [0.9416494, 0.1218383, 0.5561695], "includesElement__en_ghosh": [0.304575, 0.0981896, 0.1280782], "includesElement__en_pauling": [3.44, 0.82, 1.6], "includesElement__glawe_number": [97, 10, 53], "includesElement__group_id": [16, 1, 5], "includesElement__heat_of_formation": [249.229, 89.0, 733.0], "includesElement__is_radioactive": [false], "includesElement__lattice_constant": [6.83, 5.23, 3.3], "includesElement__mendeleev_number": [99, 3, 48], "includesElement__molar_heat_capacity": [29.378, 29.6, 24.6], "includesElement__period": [2, 4, 5], "includesElement__pettifor_number": [101, 10, 52], "includesElement__specific_heat_capacity": [0.918, 0.757, 0.265], "includesElement__vdw_radius": [152.0, 275.0, 218.0], "includesElement__vdw_radius_alvarez": [150.0, 273.0, 256.0], "includesElement__vdw_radius_mm3": [182.0, 309.0, 243.0], "includesElement__vdw_radius_uff": [350.0, 381.2, 316.5], "includesElement__abundance_sea": [857000.0, 399.0, 1e-05], "includesElement__c6_gb": [16.7, 3910.0, 1140.0], "includesElement__covalent_radius_bragg": [65.0, 207.0], "includesElement__electronegativity_allen": [21.36, 4.34, 8.34], "includesElement__en_allen": [21.36, 4.34, 8.34], "includesElement__thermal_conductivity": [0.027, 79.0, 53.7], "includesElement__vdw_radius_batsanov": [155.0, 280.0, 215.0], "includesElement__c6": [15.6, 3923.0], "includesElement__vdw_radius_dreiding": [340.46], "includesElement__gas_basicity": [459.6], "includesElement__proton_affinity": [485.2], "includesElement__vdw_radius_bondi": [152.0, 275.0], "includesElement__vdw_radius_rt": [158.0], "includesElement__evaporation_heat": [2.33, 680.0], "includesElement__fusion_heat": [102.5, 26.8], "includesElement__atomic_weight_uncertainty": [0.0001, 2e-05], "includesElement__metallic_radius": [203.0, 134.0], "includesElement__metallic_radius_c12": [235.0, 146.0], "includesElement__is_monoisotopic": [true], "formula": ["K1Nb1O3"], "spacegroup": ["38"], "thermalConductivity": [12.7733], "icsd": ["9533"], "band_gap": [2.0585], "density": [4.501553], "density_atomic": [13.27994], "deprecated": [false], "efermi": [1.254447], "energy_above_hull": [0.0003534], "energy_per_atom": [-8.067086], "formation_energy_per_atom": [-2.849193], "homogeneous_poisson": [0.291], "is_gap_direct": [false], "is_magnetic": [false], "is_metal": [false], "is_stable": [false], "nelements": [3], "nsites": [5], "num_magnetic_sites": [0], "num_unique_magnetic_sites": [0], "theoretical": [false], "total_magnetization": [0.0], "total_magnetization_normalized_formula_units": [0.0], "total_magnetization_normalized_vol": [0.0], "uncorrected_energy_per_atom": [-12.41135], "universal_anisotropy": [3.669], "volume": [66.39971], "cbm": [3.1778], "e_electronic": [5.620386], "e_ionic": [6.256666], "e_total": [11.87705], "n": [2.370735], "vbm": [1.1193], "e_ij_max": [3.969048]}