{"includesElement": ["", "Zn", "N", "C"], "includesElement___series_id": [8, 1], "includesElement__abundance_crust": [70.0, 19.0, 200.0], "includesElement__atomic_number": [30, 7, 6], "includesElement__atomic_radius": [135.0, 65.0, 70.0], "includesElement__atomic_radius_rahm": [222.0, 179.0, 190.0], "includesElement__atomic_volume": [9.2, 17.3, 5.3], "includesElement__atomic_weight": [65.38, 14.007, 12.011], "includesElement__covalent_radius_cordero": [122.0, 71.0, 73.0], "includesElement__covalent_radius_pyykko": [118.0, 71.0, 75.0], "includesElement__covalent_radius_pyykko_double": [120.0, 60.0, 67.0], "includesElement__density": [7.134, 0.001145, 2.2], "includesElement__dipole_polarizability": [38.67, 7.4, 11.3], "includesElement__dipole_polarizability_unc": [0.3, 0.2], "includesElement__electronegativity_allred-rochow": [0.0003124102, 0.000773656, 0.0005777778], "includesElement__electronegativity_cottrell-sutton": [0.1920011, 0.2343706, 0.2081666], "includesElement__electronegativity_ghosh": [0.1551518, 0.26493, 0.224776], "includesElement__electronegativity_gordy": [0.03686441, 0.05492958, 0.04333333], "includesElement__electronegativity_mulliken": [4.6971, 6.567065, 6.261208], "includesElement__electronegativity_nagle": [0.6770213, 0.8774979, 0.7073926], "includesElement__electronegativity_pauling": [1.65, 3.04, 2.55], "includesElement__electronegativity_sanderson": [0.8100877, 0.577482, 0.427525], "includesElement__en_ghosh": [0.1551518, 0.26493, 0.224776], "includesElement__en_pauling": [1.65, 3.04, 2.55], "includesElement__evaporation_heat": [114.8], "includesElement__fusion_heat": [7.28], "includesElement__glawe_number": [74, 88, 87], "includesElement__group_id": [12, 15, 14], "includesElement__heat_of_formation": [130.4, 472.44, 716.87], "includesElement__is_radioactive": [false], "includesElement__lattice_constant": [2.66, 4.039, 3.57], "includesElement__mendeleev_number": [77, 93, 87], "includesElement__molar_heat_capacity": [25.39, 29.124, 8.517], "includesElement__period": [4, 2], "includesElement__pettifor_number": [76, 100, 95], "includesElement__specific_heat_capacity": [0.388, 1.04, 0.709], "includesElement__vdw_radius": [201.0, 155.0, 170.0], "includesElement__vdw_radius_alvarez": [239.0, 166.0, 177.0], "includesElement__vdw_radius_mm3": [229.0, 193.0, 204.0], "includesElement__vdw_radius_uff": [276.3, 366.0, 385.1], "includesElement__abundance_sea": [0.0049, 0.5, 28.0], "includesElement__atomic_weight_uncertainty": [0.02], "includesElement__c6_gb": [276.0, 25.7, 47.9], "includesElement__covalent_radius_bragg": [132.0, 65.0, 77.0], "includesElement__electronegativity_allen": [9.395, 18.13, 15.05], "includesElement__en_allen": [9.395, 18.13, 15.05], "includesElement__metallic_radius": [121.0], "includesElement__metallic_radius_c12": [134.0, 53.0, 86.0], "includesElement__thermal_conductivity": [116.0, 0.026, 1.59], "includesElement__vdw_radius_batsanov": [210.0, 160.0, 170.0], "includesElement__c6": [284.0, 24.2, 46.6], "includesElement__gas_basicity": [586.0, 318.7], "includesElement__proton_affinity": [608.6, 342.2], "includesElement__covalent_radius_pyykko_triple": [54.0, 60.0], "includesElement__discovery_year": [1772], "includesElement__electron_affinity": [-1.4, 1.262119], "includesElement__vdw_radius_dreiding": [366.21, 389.83], "includesElement__vdw_radius_bondi": [155.0, 170.0], "includesElement__vdw_radius_rt": [164.0, 177.0], "formula": ["C4N4Zn2"], "spacegroup": ["215"], "thermalConductivity": [1.50738], "icsd": ["22392"], "band_gap": [5.9232], "density": [1.854962], "density_atomic": [21.02685], "deprecated": [false], "efermi": [-3.982441], "energy_above_hull": [0.2557681], "energy_per_atom": [-7.223908], "formation_energy_per_atom": [0.05481817], "homogeneous_poisson": [0.443], "is_gap_direct": [false], "is_magnetic": [false], "is_metal": [false], "is_stable": [false], "nelements": [3], "nsites": [10], "num_magnetic_sites": [0], "num_unique_magnetic_sites": [0], "theoretical": [false], "total_magnetization": [0.0], "total_magnetization_normalized_formula_units": [0.0], "total_magnetization_normalized_vol": [0.0], "uncorrected_energy_per_atom": [-7.079508], "universal_anisotropy": [0.078], "volume": [210.2685], "cbm": [1.8176], "vbm": [-4.1056]}