{"includesElement": ["", "Ni", "Sn"], "includesElement___series_id": [8, 7], "includesElement__abundance_crust": [84.0, 2.3], "includesElement__atomic_number": [28, 50], "includesElement__atomic_radius": [135.0, 145.0], "includesElement__atomic_radius_rahm": [229.0, 248.0], "includesElement__atomic_volume": [6.6, 16.3], "includesElement__atomic_weight": [58.6934, 118.71], "includesElement__covalent_radius_cordero": [124.0, 139.0], "includesElement__covalent_radius_pyykko": [110.0, 140.0], "includesElement__covalent_radius_pyykko_double": [101.0, 130.0], "includesElement__covalent_radius_pyykko_triple": [101.0, 132.0], "includesElement__density": [8.9, 7.287], "includesElement__dipole_polarizability": [49.0, 53.0], "includesElement__dipole_polarizability_unc": [3.0, 6.0], "includesElement__discovery_year": [1751], "includesElement__electron_affinity": [1.156, 1.112067], "includesElement__electronegativity_allred-rochow": [0.0003347107, 0.0002882653], "includesElement__electronegativity_cottrell-sutton": [0.1918806, 0.2008909], "includesElement__electronegativity_ghosh": [0.1472068, 0.178052], "includesElement__electronegativity_gordy": [0.03681818, 0.04035714], "includesElement__electronegativity_mulliken": [4.397939, 4.227992], "includesElement__electronegativity_nagle": [0.588755, 0.4225986], "includesElement__electronegativity_pauling": [1.91, 1.96], "includesElement__electronegativity_sanderson": [0.937704, 0.7622797], "includesElement__en_ghosh": [0.1472068, 0.178052], "includesElement__en_pauling": [1.91, 1.96], "includesElement__evaporation_heat": [378.6, 296.0], "includesElement__fusion_heat": [17.61, 7.07], "includesElement__glawe_number": [69, 83], "includesElement__group_id": [10, 14], "includesElement__heat_of_formation": [430.1, 301.2], "includesElement__is_radioactive": [false], "includesElement__lattice_constant": [3.52, 5.82], "includesElement__mendeleev_number": [67, 90], "includesElement__molar_heat_capacity": [26.07, 26.99], "includesElement__period": [4, 5], "includesElement__pettifor_number": [67, 83], "includesElement__specific_heat_capacity": [0.444, 0.227], "includesElement__vdw_radius": [197.0, 217.0], "includesElement__vdw_radius_alvarez": [240.0, 242.0], "includesElement__vdw_radius_mm3": [222.0, 259.0], "includesElement__vdw_radius_uff": [283.4, 439.2], "includesElement__abundance_sea": [0.00056, 4e-06], "includesElement__atomic_weight_uncertainty": [0.0004, 0.007], "includesElement__c6_gb": [393.0, 715.0], "includesElement__covalent_radius_bragg": [135.0, 140.0], "includesElement__electronegativity_allen": [11.13, 10.79], "includesElement__en_allen": [11.13, 10.79], "includesElement__metallic_radius": [115.0, 142.0], "includesElement__metallic_radius_c12": [124.0, 163.0], "includesElement__thermal_conductivity": [90.9, 66.8], "includesElement__vdw_radius_batsanov": [200.0, 225.0], "includesElement__c6": [373.0, 659.0], "includesElement__gas_basicity": [714.1], "includesElement__proton_affinity": [737.0], "includesElement__vdw_radius_dreiding": [447.0], "includesElement__vdw_radius_bondi": [217.0], "formula": ["Ni3Sn1"], "spacegroup": ["221"], "thermalConductivity": [5.91168], "icsd": ["105353"], "band_gap": [0.0], "density": [9.746232], "density_atomic": [12.55641], "deprecated": [false], "efermi": [9.406978], "energy_above_hull": [0.0], "energy_per_atom": [-5.523359], "formation_energy_per_atom": [-0.1858635], "homogeneous_poisson": [0.3], "is_gap_direct": [false], "is_magnetic": [false], "is_metal": [true], "is_stable": [true], "nelements": [2], "nsites": [4], "num_magnetic_sites": [0], "num_unique_magnetic_sites": [0], "theoretical": [false], "total_magnetization": [0.0002382], "total_magnetization_normalized_formula_units": [0.0002382], "total_magnetization_normalized_vol": [4.742599e-06], "uncorrected_energy_per_atom": [-15.2953], "universal_anisotropy": [0.347], "volume": [50.22563], "equilibrium_reaction_energy_per_atom": [-0.02285153]}