{"includesElement": ["", "Se", "Dy"], "includesElement___series_id": [1, 9], "includesElement__abundance_crust": [0.05, 5.2], "includesElement__atomic_number": [34, 66], "includesElement__atomic_radius": [115.0, 175.0], "includesElement__atomic_radius_rahm": [224.0, 275.0], "includesElement__atomic_volume": [16.5, 19.0], "includesElement__atomic_weight": [78.971, 162.5], "includesElement__covalent_radius_cordero": [120.0, 192.0], "includesElement__covalent_radius_pyykko": [116.0, 167.0], "includesElement__covalent_radius_pyykko_double": [107.0, 133.0], "includesElement__covalent_radius_pyykko_triple": [107.0], "includesElement__density": [4.809, 8.55], "includesElement__dipole_polarizability": [28.9, 163.0], "includesElement__dipole_polarizability_unc": [1.0, 15.0], "includesElement__discovery_year": [1818, 1886], "includesElement__electron_affinity": [2.02067, 0.352], "includesElement__electronegativity_allred-rochow": [0.0005164982, 0.0001021908], "includesElement__electronegativity_cottrell-sutton": [0.2447729, 0.1306364], "includesElement__electronegativity_ghosh": [0.2240328, 0.20333], "includesElement__electronegativity_gordy": [0.05991379, 0.01706587], "includesElement__electronegativity_mulliken": [5.886531, 3.145525], "includesElement__electronegativity_nagle": [0.592131, 0.4191131], "includesElement__electronegativity_pauling": [2.55, 1.22], "includesElement__electronegativity_sanderson": [0.9659121, 0.5297338], "includesElement__en_ghosh": [0.2240328, 0.20333], "includesElement__en_pauling": [2.55, 1.22], "includesElement__evaporation_heat": [59.7, 291.0], "includesElement__fusion_heat": [5.23], "includesElement__glawe_number": [95, 24], "includesElement__group_id": [16], "includesElement__heat_of_formation": [227.2, 290.4], "includesElement__is_radioactive": [false], "includesElement__lattice_constant": [4.36, 3.59], "includesElement__mendeleev_number": [101, 31], "includesElement__molar_heat_capacity": [25.363, 28.16], "includesElement__period": [4, 6], "includesElement__pettifor_number": [93, 25], "includesElement__specific_heat_capacity": [0.321, 0.173], "includesElement__vdw_radius": [190.0, 231.0], "includesElement__vdw_radius_alvarez": [182.0, 287.0], "includesElement__vdw_radius_mm3": [229.0, 290.0], "includesElement__vdw_radius_uff": [420.5, 342.8], "includesElement__abundance_sea": [0.0002, 9.1e-07], "includesElement__atomic_weight_uncertainty": [0.008, 0.001], "includesElement__c6_gb": [233.0, 2430.0], "includesElement__covalent_radius_bragg": [117.0], "includesElement__electronegativity_allen": [14.34], "includesElement__en_allen": [14.34], "includesElement__metallic_radius": [117.0], "includesElement__metallic_radius_c12": [140.0], "includesElement__thermal_conductivity": [0.52, 10.7], "includesElement__vdw_radius_batsanov": [190.0], "includesElement__c6": [210.0], "includesElement__vdw_radius_dreiding": [403.0], "includesElement__vdw_radius_bondi": [190.0], "formula": ["Dy8Se12"], "spacegroup": ["62"], "thermalConductivity": [2.02021], "icsd": ["419"], "band_gap": [0.3663], "density": [7.636461], "density_atomic": [24.43602], "deprecated": [false], "efermi": [3.773967], "energy_above_hull": [0.0], "energy_per_atom": [-23.54226], "formation_energy_per_atom": [-2.162599], "is_gap_direct": [true], "is_magnetic": [false], "is_metal": [false], "is_stable": [true], "nelements": [2], "nsites": [20], "num_magnetic_sites": [0], "num_unique_magnetic_sites": [0], "theoretical": [false], "total_magnetization": [0.0], "total_magnetization_normalized_formula_units": [0.0], "total_magnetization_normalized_vol": [0.0], "uncorrected_energy_per_atom": [-23.54226], "volume": [488.7205], "cbm": [4.0349], "equilibrium_reaction_energy_per_atom": [-0.2106529], "vbm": [3.6686]}