{"includesElement": ["", "Y", "C"], "includesElement___series_id": [8, 1], "includesElement__abundance_crust": [33.0, 200.0], "includesElement__atomic_number": [39, 6], "includesElement__atomic_radius": [180.0, 70.0], "includesElement__atomic_radius_rahm": [274.0, 190.0], "includesElement__atomic_volume": [19.8, 5.3], "includesElement__atomic_weight": [88.90584, 12.011], "includesElement__covalent_radius_cordero": [190.0, 73.0], "includesElement__covalent_radius_pyykko": [163.0, 75.0], "includesElement__covalent_radius_pyykko_double": [130.0, 67.0], "includesElement__covalent_radius_pyykko_triple": [124.0, 60.0], "includesElement__density": [4.47, 2.2], "includesElement__dipole_polarizability": [162.0, 11.3], "includesElement__dipole_polarizability_unc": [12.0, 0.2], "includesElement__discovery_year": [1789], "includesElement__electron_affinity": [0.307, 1.262119], "includesElement__electronegativity_allred-rochow": [0.0001129135, 0.0005777778], "includesElement__electronegativity_cottrell-sutton": [0.1356647, 0.2081666], "includesElement__electronegativity_ghosh": [0.1216986, 0.224776], "includesElement__electronegativity_gordy": [0.01840491, 0.04333333], "includesElement__electronegativity_mulliken": [3.26213, 6.261208], "includesElement__electronegativity_nagle": [0.2645668, 0.7073926], "includesElement__electronegativity_pauling": [1.22, 2.55], "includesElement__electronegativity_sanderson": [0.3923941, 0.427525], "includesElement__en_ghosh": [0.1216986, 0.224776], "includesElement__en_pauling": [1.22, 2.55], "includesElement__evaporation_heat": [367.0], "includesElement__fusion_heat": [11.5], "includesElement__glawe_number": [21, 87], "includesElement__group_id": [3, 14], "includesElement__heat_of_formation": [424.7, 716.87], "includesElement__is_radioactive": [false], "includesElement__lattice_constant": [3.65, 3.57], "includesElement__mendeleev_number": [12, 87], "includesElement__molar_heat_capacity": [26.53, 8.517], "includesElement__period": [5, 2], "includesElement__pettifor_number": [19, 95], "includesElement__specific_heat_capacity": [0.298, 0.709], "includesElement__vdw_radius": [232.0, 170.0], "includesElement__vdw_radius_alvarez": [275.0, 177.0], "includesElement__vdw_radius_mm3": [271.0, 204.0], "includesElement__vdw_radius_uff": [334.5, 385.1], "includesElement__abundance_sea": [1.3e-05, 28.0], "includesElement__atomic_weight_uncertainty": [2e-05], "includesElement__c6_gb": [2600.0, 47.9], "includesElement__electronegativity_allen": [6.631, 15.05], "includesElement__en_allen": [6.631, 15.05], "includesElement__metallic_radius": [162.0], "includesElement__metallic_radius_c12": [180.0, 86.0], "includesElement__vdw_radius_batsanov": [240.0, 170.0], "includesElement__is_monoisotopic": [true], "includesElement__gas_basicity": [945.9], "includesElement__proton_affinity": [967.0], "includesElement__covalent_radius_bragg": [77.0], "includesElement__thermal_conductivity": [1.59], "includesElement__c6": [46.6], "includesElement__vdw_radius_dreiding": [389.83], "includesElement__vdw_radius_bondi": [170.0], "includesElement__vdw_radius_rt": [177.0], "formula": ["C1Y1"], "spacegroup": ["216"], "thermalConductivity": [4.12962], "icsd": ["183160"], "band_gap": [0.0], "density": [4.106961], "density_atomic": [20.40145], "deprecated": [false], "efermi": [2.063102], "energy_above_hull": [0.8105842], "energy_per_atom": [-7.353164], "formation_energy_per_atom": [0.5157148], "homogeneous_poisson": [0.414], "is_gap_direct": [false], "is_magnetic": [false], "is_metal": [true], "is_stable": [false], "nelements": [2], "nsites": [2], "num_magnetic_sites": [0], "num_unique_magnetic_sites": [0], "theoretical": [true], "total_magnetization": [0.0135469], "total_magnetization_normalized_formula_units": [0.0135469], "total_magnetization_normalized_vol": [0.0003320083], "uncorrected_energy_per_atom": [-7.353164], "universal_anisotropy": [10.113], "volume": [40.80289]}