{"includesElement": ["", "Be", "O"], "includesElement___series_id": [4, 1], "includesElement__abundance_crust": [2.8, 461000.0], "includesElement__atomic_number": [4, 8], "includesElement__atomic_radius": [105.0, 60.0], "includesElement__atomic_radius_rahm": [219.0, 171.0], "includesElement__atomic_volume": [5.0, 14.0], "includesElement__atomic_weight": [9.012183, 15.999], "includesElement__covalent_radius_cordero": [96.0, 66.0], "includesElement__covalent_radius_pyykko": [102.0, 63.0], "includesElement__covalent_radius_pyykko_double": [90.0, 57.0], "includesElement__covalent_radius_pyykko_triple": [85.0, 53.0], "includesElement__density": [1.85, 0.001308], "includesElement__dipole_polarizability": [37.74, 5.3], "includesElement__dipole_polarizability_unc": [0.03, 0.2], "includesElement__discovery_year": [1798, 1774], "includesElement__electron_affinity": [-2.4, 1.461113], "includesElement__electronegativity_allred-rochow": [0.0001874279, 0.001146384], "includesElement__electronegativity_cottrell-sutton": [0.1382666, 0.2687419], "includesElement__electronegativity_ghosh": [0.144986, 0.304575], "includesElement__electronegativity_gordy": [0.01911765, 0.07222222], "includesElement__electronegativity_mulliken": [3.461349, 7.539584], "includesElement__electronegativity_nagle": [0.3756148, 1.042218], "includesElement__electronegativity_pauling": [1.57, 3.44], "includesElement__electronegativity_sanderson": [0.1268473, 0.9416494], "includesElement__en_ghosh": [0.144986, 0.304575], "includesElement__en_pauling": [1.57, 3.44], "includesElement__evaporation_heat": [309.0], "includesElement__fusion_heat": [12.21], "includesElement__glawe_number": [77, 97], "includesElement__group_id": [2, 16], "includesElement__heat_of_formation": [324.0, 249.229], "includesElement__is_radioactive": [false], "includesElement__lattice_constant": [2.29, 6.83], "includesElement__mendeleev_number": [75, 99], "includesElement__molar_heat_capacity": [16.443, 29.378], "includesElement__period": [2], "includesElement__pettifor_number": [77, 101], "includesElement__specific_heat_capacity": [1.825, 0.918], "includesElement__vdw_radius": [153.0, 152.0], "includesElement__vdw_radius_alvarez": [198.0, 150.0], "includesElement__vdw_radius_mm3": [223.0, 182.0], "includesElement__vdw_radius_uff": [274.5, 350.0], "includesElement__abundance_sea": [5.6e-06, 857000.0], "includesElement__atomic_weight_uncertainty": [5e-07], "includesElement__c6_gb": [214.0, 16.7], "includesElement__covalent_radius_bragg": [115.0, 65.0], "includesElement__electronegativity_allen": [9.323, 21.36], "includesElement__en_allen": [9.323, 21.36], "includesElement__metallic_radius": [89.0], "includesElement__metallic_radius_c12": [112.0], "includesElement__thermal_conductivity": [201.0, 0.027], "includesElement__vdw_radius_batsanov": [190.0, 155.0], "includesElement__c6": [227.0, 15.6], "includesElement__is_monoisotopic": [true], "includesElement__vdw_radius_truhlar": [153.0], "includesElement__vdw_radius_dreiding": [340.46], "includesElement__gas_basicity": [459.6], "includesElement__proton_affinity": [485.2], "includesElement__vdw_radius_bondi": [152.0], "includesElement__vdw_radius_rt": [158.0], "formula": ["Be2O2", "BeO"], "mp_id": ["mp-2542"], "spacegroup": ["186"], "thermalConductivity": [53.2285, 314.0137, 375.96], "icsd": ["15620"], "band_gap": [7.4639], "density": [3.019437], "density_atomic": [6.877558], "deprecated": [false], "efermi": [2.608237], "energy_above_hull": [0.0], "energy_per_atom": [-7.446543], "formation_energy_per_atom": [-3.100704], "homogeneous_poisson": [0.199], "is_gap_direct": [true], "is_magnetic": [false], "is_metal": [false], "is_stable": [true], "nelements": [2], "nsites": [4], "num_magnetic_sites": [0], "num_unique_magnetic_sites": [0], "theoretical": [false], "total_magnetization": [0.0], "total_magnetization_normalized_formula_units": [0.0], "total_magnetization_normalized_vol": [0.0], "uncorrected_energy_per_atom": [-8.158747], "universal_anisotropy": [0.076], "volume": [27.51023], "cbm": [9.7926], "e_electronic": [3.102315], "e_ionic": [4.246495], "e_total": [7.34881], "equilibrium_reaction_energy_per_atom": [-3.100704], "n": [1.761339], "vbm": [2.3287], "e_ij_max": [0.2545649]}