{"includesElement": ["", "Pb", "Te"], "includesElement___series_id": [7, 5], "includesElement__abundance_crust": [14.0, 0.001], "includesElement__atomic_number": [82, 52], "includesElement__atomic_radius": [180.0, 140.0], "includesElement__atomic_radius_rahm": [249.0, 242.0], "includesElement__atomic_volume": [18.3, 20.5], "includesElement__atomic_weight": [207.2, 127.6], "includesElement__covalent_radius_cordero": [146.0, 138.0], "includesElement__covalent_radius_pyykko": [144.0, 136.0], "includesElement__covalent_radius_pyykko_double": [135.0, 128.0], "includesElement__covalent_radius_pyykko_triple": [137.0, 121.0], "includesElement__density": [11.3, 6.232], "includesElement__dipole_polarizability": [47.0, 38.0], "includesElement__dipole_polarizability_unc": [3.0, 4.0], "includesElement__electron_affinity": [0.3567432, 1.970876], "includesElement__electronegativity_allred-rochow": [0.000272473, 0.0003757569], "includesElement__electronegativity_cottrell-sutton": [0.1980811, 0.2260596], "includesElement__electronegativity_ghosh": [0.177911, 0.2056992], "includesElement__electronegativity_gordy": [0.03923611, 0.05110294], "includesElement__electronegativity_mulliken": [3.886711, 5.490268], "includesElement__electronegativity_nagle": [0.4398663, 0.5404919], "includesElement__electronegativity_pauling": [1.8, 2.1], "includesElement__electronegativity_sanderson": [0.9313226, 0.8622506], "includesElement__en_ghosh": [0.177911, 0.2056992], "includesElement__en_pauling": [1.8, 2.1], "includesElement__evaporation_heat": [177.8, 49.8], "includesElement__fusion_heat": [4.77, 17.91], "includesElement__glawe_number": [82, 94], "includesElement__group_id": [14, 16], "includesElement__heat_of_formation": [195.2, 196.6], "includesElement__is_radioactive": [false], "includesElement__lattice_constant": [4.95, 4.45], "includesElement__mendeleev_number": [91, 102], "includesElement__molar_heat_capacity": [26.84, 25.73], "includesElement__period": [6, 5], "includesElement__pettifor_number": [82, 92], "includesElement__specific_heat_capacity": [0.13, 0.202], "includesElement__vdw_radius": [202.0, 206.0], "includesElement__vdw_radius_alvarez": [260.0, 199.0], "includesElement__vdw_radius_mm3": [274.0, 244.0], "includesElement__vdw_radius_uff": [429.7, 447.0], "includesElement__abundance_sea": [3e-05], "includesElement__atomic_weight_uncertainty": [0.1, 0.03], "includesElement__c6_gb": [534.0, 471.0], "includesElement__electronegativity_allen": [10.97, 12.76], "includesElement__en_allen": [10.97, 12.76], "includesElement__metallic_radius": [150.0, 137.0], "includesElement__metallic_radius_c12": [170.0, 160.0], "includesElement__thermal_conductivity": [35.3, 14.3], "includesElement__vdw_radius_batsanov": [230.0, 210.0], "includesElement__vdw_radius_bondi": [202.0, 206.0], "includesElement__discovery_year": [1782], "includesElement__covalent_radius_bragg": [133.0], "includesElement__c6": [445.0], "includesElement__vdw_radius_dreiding": [423.0], "formula": ["Pb1Te1", "PbTe"], "mp_id": ["mp-19717"], "spacegroup": ["225"], "thermalConductivity": [4.08023, 2.984448, 3.551276], "icsd": ["153711"], "band_gap": [0.8063], "density": [7.943356], "density_atomic": [34.99456], "deprecated": [false], "efermi": [5.117745], "energy_above_hull": [0.0], "energy_per_atom": [-41.35501], "formation_energy_per_atom": [-0.5038299], "homogeneous_poisson": [0.242], "is_gap_direct": [true], "is_magnetic": [false], "is_metal": [false], "is_stable": [true], "nelements": [2], "nsites": [2], "num_magnetic_sites": [0], "num_unique_magnetic_sites": [0], "theoretical": [false], "total_magnetization": [0.0], "total_magnetization_normalized_formula_units": [0.0], "total_magnetization_normalized_vol": [0.0], "uncorrected_energy_per_atom": [-41.35501], "universal_anisotropy": [2.127], "volume": [69.98912], "cbm": [5.8593], "e_electronic": [26.21813], "e_ionic": [353.62], "e_total": [379.8381], "equilibrium_reaction_energy_per_atom": [-0.5038299], "n": [5.120364], "vbm": [5.053]}