{"includesElement": ["", "Al", "Mn"], "includesElement___series_id": [7, 8], "includesElement__abundance_crust": [82300.0, 950.0], "includesElement__atomic_number": [13, 25], "includesElement__atomic_radius": [125.0, 140.0], "includesElement__atomic_radius_rahm": [239.0, 242.0], "includesElement__atomic_volume": [10.0, 7.39], "includesElement__atomic_weight": [26.98154, 54.93804], "includesElement__covalent_radius_cordero": [121.0, 150.0], "includesElement__covalent_radius_pyykko": [126.0, 119.0], "includesElement__covalent_radius_pyykko_double": [113.0, 105.0], "includesElement__covalent_radius_pyykko_triple": [111.0, 103.0], "includesElement__density": [2.7, 7.3], "includesElement__dipole_polarizability": [57.8, 68.0], "includesElement__dipole_polarizability_unc": [1.0, 9.0], "includesElement__discovery_year": [1825, 1774], "includesElement__electron_affinity": [0.43283], "includesElement__electronegativity_allred-rochow": [0.0002204586, 0.0002542193], "includesElement__electronegativity_cottrell-sutton": [0.1666667, 0.1739313], "includesElement__electronegativity_ghosh": [0.150078, 0.1352844], "includesElement__electronegativity_gordy": [0.02777778, 0.0302521], "includesElement__electronegativity_mulliken": [3.209299, 3.717009], "includesElement__electronegativity_nagle": [0.3730192, 0.4686656], "includesElement__electronegativity_pauling": [1.61, 1.55], "includesElement__electronegativity_sanderson": [0.2360927, 0.6707264], "includesElement__en_ghosh": [0.150078, 0.1352844], "includesElement__en_pauling": [1.61, 1.55], "includesElement__evaporation_heat": [284.1, 221.0], "includesElement__fusion_heat": [10.75, 13.4], "includesElement__glawe_number": [78, 72], "includesElement__group_id": [13, 7], "includesElement__heat_of_formation": [330.9, 283.3], "includesElement__is_radioactive": [false], "includesElement__lattice_constant": [4.05, 8.89], "includesElement__mendeleev_number": [82, 55], "includesElement__molar_heat_capacity": [24.2, 26.32], "includesElement__period": [3, 4], "includesElement__pettifor_number": [80, 60], "includesElement__specific_heat_capacity": [0.897, 0.479], "includesElement__vdw_radius": [184.0, 205.0], "includesElement__vdw_radius_alvarez": [225.0, 245.0], "includesElement__vdw_radius_mm3": [236.0, 224.0], "includesElement__vdw_radius_uff": [449.9, 296.1], "includesElement__abundance_sea": [0.002, 0.0002], "includesElement__atomic_weight_uncertainty": [7e-07, 3e-06], "includesElement__c6_gb": [520.0, 635.0], "includesElement__covalent_radius_bragg": [135.0, 147.0], "includesElement__electronegativity_allen": [9.539, 10.34], "includesElement__en_allen": [9.539, 10.34], "includesElement__metallic_radius": [125.0, 118.0], "includesElement__metallic_radius_c12": [143.0, 127.0], "includesElement__thermal_conductivity": [237.0], "includesElement__vdw_radius_batsanov": [210.0, 205.0], "includesElement__c6": [528.0, 552.0], "includesElement__is_monoisotopic": [true], "includesElement__vdw_radius_dreiding": [439.0], "includesElement__vdw_radius_truhlar": [184.0], "includesElement__gas_basicity": [774.4], "includesElement__proton_affinity": [797.3], "formula": ["Al12Mn2"], "spacegroup": ["63"], "thermalConductivity": [6.58041], "icsd": ["150135"], "band_gap": [0.0], "density": [3.451854], "density_atomic": [14.9009], "deprecated": [false], "efermi": [7.868423], "energy_above_hull": [0.0], "energy_per_atom": [-4.693051], "formation_energy_per_atom": [-0.1736976], "homogeneous_poisson": [0.241], "is_gap_direct": [false], "is_magnetic": [false], "is_metal": [true], "is_stable": [true], "nelements": [2], "nsites": [14], "num_magnetic_sites": [0], "num_unique_magnetic_sites": [0], "theoretical": [false], "total_magnetization": [3.7e-06], "total_magnetization_normalized_formula_units": [1.85e-06], "total_magnetization_normalized_vol": [1.773622e-08], "uncorrected_energy_per_atom": [-8.004915], "universal_anisotropy": [0.196], "volume": [208.6126], "equilibrium_reaction_energy_per_atom": [-0.0129547]}