{"includesElement": ["", "Mg", "Pd"], "includesElement___series_id": [4, 8], "includesElement__abundance_crust": [23300.0, 0.015], "includesElement__atomic_number": [12, 46], "includesElement__atomic_radius": [150.0, 140.0], "includesElement__atomic_radius_rahm": [240.0, 215.0], "includesElement__atomic_volume": [14.0, 8.9], "includesElement__atomic_weight": [24.305, 106.42], "includesElement__covalent_radius_cordero": [141.0, 139.0], "includesElement__covalent_radius_pyykko": [139.0, 120.0], "includesElement__covalent_radius_pyykko_double": [132.0, 117.0], "includesElement__covalent_radius_pyykko_triple": [127.0, 112.0], "includesElement__density": [1.74, 12.0], "includesElement__dipole_polarizability": [71.2, 26.14], "includesElement__dipole_polarizability_unc": [0.4, 0.1], "includesElement__discovery_year": [1808, 1803], "includesElement__electronegativity_allred-rochow": [0.0001475079, 0.0004756944], "includesElement__electronegativity_cottrell-sutton": [0.1431908, 0.2389212], "includesElement__electronegativity_ghosh": [0.121644, 0.1440276], "includesElement__electronegativity_gordy": [0.0205036, 0.05708333], "includesElement__electronegativity_mulliken": [3.823117, 4.44943], "includesElement__electronegativity_nagle": [0.3039835, 0.7259357], "includesElement__electronegativity_pauling": [1.31, 2.2], "includesElement__electronegativity_sanderson": [0.1524211, 1.124263], "includesElement__en_ghosh": [0.121644, 0.1440276], "includesElement__en_pauling": [1.31, 2.2], "includesElement__evaporation_heat": [131.8, 372.4], "includesElement__fusion_heat": [9.2, 17.24], "includesElement__glawe_number": [73, 65], "includesElement__group_id": [2, 10], "includesElement__heat_of_formation": [147.1, 376.6], "includesElement__is_radioactive": [false], "includesElement__lattice_constant": [3.21, 3.89], "includesElement__mendeleev_number": [76, 68], "includesElement__molar_heat_capacity": [24.869, 25.98], "includesElement__period": [3, 5], "includesElement__pettifor_number": [73, 69], "includesElement__specific_heat_capacity": [1.023, 0.246], "includesElement__vdw_radius": [173.0, 210.0], "includesElement__vdw_radius_alvarez": [251.0, 215.0], "includesElement__vdw_radius_mm3": [243.0, 237.0], "includesElement__vdw_radius_uff": [302.1, 289.9], "includesElement__abundance_sea": [1290.0], "includesElement__c6_gb": [629.0, 628.0], "includesElement__covalent_radius_bragg": [142.0], "includesElement__electronegativity_allen": [7.646, 9.402], "includesElement__en_allen": [7.646, 9.402], "includesElement__metallic_radius": [136.0, 128.0], "includesElement__metallic_radius_c12": [160.0, 137.0], "includesElement__thermal_conductivity": [156.0, 71.8], "includesElement__vdw_radius_batsanov": [220.0, 205.0], "includesElement__c6": [626.0], "includesElement__gas_basicity": [797.3, 673.4], "includesElement__proton_affinity": [819.6, 696.0], "includesElement__vdw_radius_bondi": [173.0], "includesElement__electron_affinity": [0.562], "includesElement__atomic_weight_uncertainty": [0.01], "formula": ["Mg1Pd3"], "spacegroup": ["221"], "thermalConductivity": [1.9332], "icsd": ["153055"], "band_gap": [0.0], "density": [9.35582], "density_atomic": [15.24461], "deprecated": [false], "efermi": [4.767321], "energy_above_hull": [0.01137175], "energy_per_atom": [-4.769775], "formation_energy_per_atom": [-0.477246], "homogeneous_poisson": [0.355], "is_gap_direct": [false], "is_magnetic": [false], "is_metal": [true], "is_stable": [false], "nelements": [2], "nsites": [4], "num_magnetic_sites": [0], "num_unique_magnetic_sites": [0], "theoretical": [false], "total_magnetization": [0.0001125], "total_magnetization_normalized_formula_units": [0.0001125], "total_magnetization_normalized_vol": [1.844915e-06], "uncorrected_energy_per_atom": [-18.71752], "universal_anisotropy": [1.25], "volume": [60.97842]}