{"includesElement": ["", "N", "Si"], "includesElement___series_id": [1, 5], "includesElement__abundance_crust": [19.0, 282000.0], "includesElement__atomic_number": [7, 14], "includesElement__atomic_radius": [65.0, 110.0], "includesElement__atomic_radius_rahm": [179.0, 232.0], "includesElement__atomic_volume": [17.3, 12.1], "includesElement__atomic_weight": [14.007, 28.085], "includesElement__covalent_radius_cordero": [71.0, 111.0], "includesElement__covalent_radius_pyykko": [71.0, 116.0], "includesElement__covalent_radius_pyykko_double": [60.0, 107.0], "includesElement__covalent_radius_pyykko_triple": [54.0, 102.0], "includesElement__density": [0.001145, 2.3296], "includesElement__dipole_polarizability": [7.4, 37.3], "includesElement__dipole_polarizability_unc": [0.2, 0.7], "includesElement__discovery_year": [1772, 1824], "includesElement__electron_affinity": [-1.4, 1.389521], "includesElement__electronegativity_allred-rochow": [0.000773656, 0.0003084126], "includesElement__electronegativity_cottrell-sutton": [0.2343706, 0.1891451], "includesElement__electronegativity_ghosh": [0.26493, 0.178503], "includesElement__electronegativity_gordy": [0.05492958, 0.03577586], "includesElement__electronegativity_mulliken": [6.567065, 4.770602], "includesElement__electronegativity_nagle": [0.8774979, 0.4750986], "includesElement__electronegativity_pauling": [3.04, 1.9], "includesElement__electronegativity_sanderson": [0.577482, 0.3468158], "includesElement__en_ghosh": [0.26493, 0.178503], "includesElement__en_pauling": [3.04, 1.9], "includesElement__glawe_number": [88, 85], "includesElement__group_id": [15, 14], "includesElement__heat_of_formation": [472.44, 450.0], "includesElement__is_radioactive": [false], "includesElement__lattice_constant": [4.039, 5.43], "includesElement__mendeleev_number": [93, 88], "includesElement__molar_heat_capacity": [29.124, 19.99], "includesElement__period": [2, 3], "includesElement__pettifor_number": [100, 85], "includesElement__specific_heat_capacity": [1.04, 0.712], "includesElement__vdw_radius": [155.0, 210.0], "includesElement__vdw_radius_alvarez": [166.0, 219.0], "includesElement__vdw_radius_mm3": [193.0, 229.0], "includesElement__vdw_radius_uff": [366.0, 429.5], "includesElement__abundance_sea": [0.5, 2.2], "includesElement__c6_gb": [25.7, 308.0], "includesElement__covalent_radius_bragg": [65.0, 117.0], "includesElement__electronegativity_allen": [18.13, 11.33], "includesElement__en_allen": [18.13, 11.33], "includesElement__metallic_radius_c12": [53.0, 138.0], "includesElement__thermal_conductivity": [0.026, 149.0], "includesElement__vdw_radius_batsanov": [160.0, 210.0], "includesElement__c6": [24.2, 305.0], "includesElement__vdw_radius_dreiding": [366.21, 427.0], "includesElement__gas_basicity": [318.7, 814.1], "includesElement__proton_affinity": [342.2, 837.0], "includesElement__vdw_radius_bondi": [155.0, 210.0], "includesElement__vdw_radius_rt": [164.0], "includesElement__evaporation_heat": [383.0], "includesElement__fusion_heat": [50.6], "includesElement__metallic_radius": [117.0], "formula": ["N8Si6"], "spacegroup": ["227"], "thermalConductivity": [33.5641], "icsd": ["156336"], "band_gap": [3.3333], "density": [3.946041], "density_atomic": [8.433259], "deprecated": [false], "efermi": [9.181942], "energy_above_hull": [0.1471397], "energy_per_atom": [-10.15042], "formation_energy_per_atom": [-1.173804], "homogeneous_poisson": [0.17], "is_gap_direct": [false], "is_magnetic": [false], "is_metal": [false], "is_stable": [false], "nelements": [2], "nsites": [14], "num_magnetic_sites": [0], "num_unique_magnetic_sites": [0], "theoretical": [true], "total_magnetization": [0.0], "total_magnetization_normalized_formula_units": [0.0], "total_magnetization_normalized_vol": [0.0], "uncorrected_energy_per_atom": [-8.035015], "universal_anisotropy": [0.585], "volume": [118.0656], "cbm": [12.4337], "vbm": [9.1004]}