{"includesElement": ["", "N", "Ti"], "includesElement___series_id": [1, 8], "includesElement__abundance_crust": [19.0, 5650.0], "includesElement__atomic_number": [7, 22], "includesElement__atomic_radius": [65.0, 140.0], "includesElement__atomic_radius_rahm": [179.0, 257.0], "includesElement__atomic_volume": [17.3, 10.6], "includesElement__atomic_weight": [14.007, 47.867], "includesElement__covalent_radius_cordero": [71.0, 160.0], "includesElement__covalent_radius_pyykko": [71.0, 136.0], "includesElement__covalent_radius_pyykko_double": [60.0, 117.0], "includesElement__covalent_radius_pyykko_triple": [54.0, 108.0], "includesElement__density": [0.001145, 4.506], "includesElement__dipole_polarizability": [7.4, 100.0], "includesElement__dipole_polarizability_unc": [0.2, 10.0], "includesElement__discovery_year": [1772, 1791], "includesElement__electron_affinity": [-1.4, 0.079], "includesElement__electronegativity_allred-rochow": [0.000773656, 0.0001703071], "includesElement__electronegativity_cottrell-sutton": [0.2343706, 0.1521899], "includesElement__electronegativity_ghosh": [0.26493, 0.1233637], "includesElement__electronegativity_gordy": [0.05492958, 0.02316176], "includesElement__electronegativity_mulliken": [6.567065, 3.45356], "includesElement__electronegativity_nagle": [0.8774979, 0.3419952], "includesElement__electronegativity_pauling": [3.04, 1.54], "includesElement__electronegativity_sanderson": [0.577482, 0.4055462], "includesElement__en_ghosh": [0.26493, 0.1233637], "includesElement__en_pauling": [3.04, 1.54], "includesElement__glawe_number": [88, 51], "includesElement__group_id": [15, 4], "includesElement__heat_of_formation": [472.44, 473.0], "includesElement__is_radioactive": [false], "includesElement__lattice_constant": [4.039, 2.95], "includesElement__mendeleev_number": [93, 43], "includesElement__molar_heat_capacity": [29.124, 25.06], "includesElement__period": [2, 4], "includesElement__pettifor_number": [100, 51], "includesElement__specific_heat_capacity": [1.04, 0.523], "includesElement__vdw_radius": [155.0, 211.0], "includesElement__vdw_radius_alvarez": [166.0, 246.0], "includesElement__vdw_radius_mm3": [193.0, 239.0], "includesElement__vdw_radius_uff": [366.0, 317.5], "includesElement__abundance_sea": [0.5, 0.001], "includesElement__c6_gb": [25.7, 1200.0], "includesElement__covalent_radius_bragg": [65.0, 140.0], "includesElement__electronegativity_allen": [18.13, 8.17], "includesElement__en_allen": [18.13, 8.17], "includesElement__metallic_radius_c12": [53.0, 147.0], "includesElement__thermal_conductivity": [0.026, 21.9], "includesElement__vdw_radius_batsanov": [160.0, 215.0], "includesElement__c6": [24.2, 1044.0], "includesElement__vdw_radius_dreiding": [366.21], "includesElement__gas_basicity": [318.7, 853.7], "includesElement__proton_affinity": [342.2, 876.0], "includesElement__vdw_radius_bondi": [155.0], "includesElement__vdw_radius_rt": [164.0], "includesElement__evaporation_heat": [422.6], "includesElement__fusion_heat": [18.8], "includesElement__atomic_weight_uncertainty": [0.001], "includesElement__metallic_radius": [132.0], "formula": ["N1Ti1"], "spacegroup": ["225"], "thermalConductivity": [68.8785], "icsd": ["105128"], "band_gap": [0.0], "density": [5.386845], "density_atomic": [9.536537], "deprecated": [false], "efermi": [8.766026], "energy_above_hull": [0.0], "energy_per_atom": [-12.97592], "formation_energy_per_atom": [-1.942667], "homogeneous_poisson": [0.22], "is_gap_direct": [false], "is_magnetic": [false], "is_metal": [true], "is_stable": [true], "nelements": [2], "nsites": [2], "num_magnetic_sites": [0], "num_unique_magnetic_sites": [0], "theoretical": [false], "total_magnetization": [4e-07], "total_magnetization_normalized_formula_units": [4e-07], "total_magnetization_normalized_vol": [2.097197e-08], "uncorrected_energy_per_atom": [-12.97592], "universal_anisotropy": [0.216], "volume": [19.07307], "equilibrium_reaction_energy_per_atom": [-0.8519533]}