{"includesElement": ["", "Zn", "Ce"], "includesElement___series_id": [8, 9], "includesElement__abundance_crust": [70.0, 66.5], "includesElement__atomic_number": [30, 58], "includesElement__atomic_radius": [135.0, 185.0], "includesElement__atomic_radius_rahm": [222.0, 282.0], "includesElement__atomic_volume": [9.2, 21.0], "includesElement__atomic_weight": [65.38, 140.116], "includesElement__covalent_radius_cordero": [122.0, 204.0], "includesElement__covalent_radius_pyykko": [118.0, 163.0], "includesElement__covalent_radius_pyykko_double": [120.0, 137.0], "includesElement__density": [7.134, 6.77], "includesElement__dipole_polarizability": [38.67, 205.0], "includesElement__dipole_polarizability_unc": [0.3, 20.0], "includesElement__electronegativity_allred-rochow": [0.0003124102, 0.0001129135], "includesElement__electronegativity_cottrell-sutton": [0.1920011, 0.1356647], "includesElement__electronegativity_ghosh": [0.1551518, 0.16761], "includesElement__electronegativity_gordy": [0.03686441, 0.01840491], "includesElement__electronegativity_mulliken": [4.6971, 3.0943], "includesElement__electronegativity_nagle": [0.6770213, 0.2692167], "includesElement__electronegativity_pauling": [1.65, 1.12], "includesElement__electronegativity_sanderson": [0.8100877, 0.5356179], "includesElement__en_ghosh": [0.1551518, 0.16761], "includesElement__en_pauling": [1.65, 1.12], "includesElement__evaporation_heat": [114.8, 398.0], "includesElement__fusion_heat": [7.28, 5.2], "includesElement__glawe_number": [74, 31], "includesElement__group_id": [12], "includesElement__heat_of_formation": [130.4, 420.1], "includesElement__is_radioactive": [false], "includesElement__lattice_constant": [2.66, 5.16], "includesElement__mendeleev_number": [77, 15], "includesElement__molar_heat_capacity": [25.39, 26.94], "includesElement__period": [4, 6], "includesElement__pettifor_number": [76, 32], "includesElement__specific_heat_capacity": [0.388, 0.192], "includesElement__vdw_radius": [201.0, 242.0], "includesElement__vdw_radius_alvarez": [239.0, 288.0], "includesElement__vdw_radius_mm3": [229.0, 274.0], "includesElement__vdw_radius_uff": [276.3, 355.6], "includesElement__abundance_sea": [0.0049, 1.2e-06], "includesElement__atomic_weight_uncertainty": [0.02, 0.001], "includesElement__c6_gb": [276.0, 3480.0], "includesElement__covalent_radius_bragg": [132.0], "includesElement__electronegativity_allen": [9.395], "includesElement__en_allen": [9.395], "includesElement__metallic_radius": [121.0], "includesElement__metallic_radius_c12": [134.0], "includesElement__thermal_conductivity": [116.0, 11.3], "includesElement__vdw_radius_batsanov": [210.0], "includesElement__c6": [284.0], "includesElement__gas_basicity": [586.0], "includesElement__proton_affinity": [608.6], "includesElement__covalent_radius_pyykko_triple": [131.0], "includesElement__discovery_year": [1803], "includesElement__electron_affinity": [0.65], "formula": ["Ce1Zn1"], "spacegroup": ["221"], "thermalConductivity": [6.13501], "icsd": ["102303"], "band_gap": [0.0], "density": [7.153397], "density_atomic": [23.85456], "deprecated": [false], "efermi": [5.90293], "energy_above_hull": [0.02931776], "energy_per_atom": [-3.789945], "formation_energy_per_atom": [-0.1915979], "is_gap_direct": [false], "is_magnetic": [true], "is_metal": [true], "is_stable": [false], "nelements": [2], "nsites": [2], "num_magnetic_sites": [1], "num_unique_magnetic_sites": [1], "theoretical": [false], "total_magnetization": [0.3935102], "total_magnetization_normalized_formula_units": [0.3935102], "total_magnetization_normalized_vol": [0.008248113], "uncorrected_energy_per_atom": [-20.06042], "volume": [47.70912]}