{"includesElement": ["", "Sn", "F"], "includesElement___series_id": [7, 6], "includesElement__abundance_crust": [2.3, 585.0], "includesElement__atomic_number": [50, 9], "includesElement__atomic_radius": [145.0, 50.0], "includesElement__atomic_radius_rahm": [248.0, 163.0], "includesElement__atomic_volume": [16.3, 17.1], "includesElement__atomic_weight": [118.71, 18.9984], "includesElement__covalent_radius_cordero": [139.0, 57.0], "includesElement__covalent_radius_pyykko": [140.0, 64.0], "includesElement__covalent_radius_pyykko_double": [130.0, 59.0], "includesElement__covalent_radius_pyykko_triple": [132.0, 53.0], "includesElement__density": [7.287, 0.001553], "includesElement__dipole_polarizability": [53.0, 3.74], "includesElement__dipole_polarizability_unc": [6.0, 0.08], "includesElement__electron_affinity": [1.112067, 3.40119], "includesElement__electronegativity_allred-rochow": [0.0002882653, 0.001269531], "includesElement__electronegativity_cottrell-sutton": [0.2008909, 0.2850439], "includesElement__electronegativity_ghosh": [0.178052, 0.344443], "includesElement__electronegativity_gordy": [0.04035714, 0.08125], "includesElement__electronegativity_mulliken": [4.227992, 10.412], "includesElement__electronegativity_nagle": [0.4225986, 1.232373], "includesElement__electronegativity_pauling": [1.96, 3.98], "includesElement__electronegativity_sanderson": [0.7622797, 1.017681], "includesElement__en_ghosh": [0.178052, 0.344443], "includesElement__en_pauling": [1.96, 3.98], "includesElement__evaporation_heat": [296.0, 6.54], "includesElement__fusion_heat": [7.07, 0.51], "includesElement__glawe_number": [83, 102], "includesElement__group_id": [14, 17], "includesElement__heat_of_formation": [301.2, 79.335], "includesElement__is_radioactive": [false], "includesElement__lattice_constant": [5.82], "includesElement__mendeleev_number": [90, 106], "includesElement__molar_heat_capacity": [26.99, 31.304], "includesElement__period": [5, 2], "includesElement__pettifor_number": [83, 102], "includesElement__specific_heat_capacity": [0.227, 0.824], "includesElement__vdw_radius": [217.0, 147.0], "includesElement__vdw_radius_alvarez": [242.0, 146.0], "includesElement__vdw_radius_mm3": [259.0, 171.0], "includesElement__vdw_radius_uff": [439.2, 336.4], "includesElement__abundance_sea": [4e-06, 1.3], "includesElement__atomic_weight_uncertainty": [0.007, 6e-09], "includesElement__c6_gb": [715.0, 10.2], "includesElement__covalent_radius_bragg": [140.0, 67.0], "includesElement__electronegativity_allen": [10.79, 24.8], "includesElement__en_allen": [10.79, 24.8], "includesElement__metallic_radius": [142.0], "includesElement__metallic_radius_c12": [163.0], "includesElement__thermal_conductivity": [66.8, 0.028], "includesElement__vdw_radius_batsanov": [225.0, 150.0], "includesElement__c6": [659.0, 9.52], "includesElement__vdw_radius_dreiding": [447.0, 347.2], "includesElement__vdw_radius_bondi": [217.0, 147.0], "includesElement__discovery_year": [1886], "includesElement__is_monoisotopic": [true], "includesElement__gas_basicity": [315.1], "includesElement__proton_affinity": [340.1], "includesElement__vdw_radius_rt": [146.0], "formula": ["F6Sn2"], "spacegroup": ["225"], "thermalConductivity": [1.91754], "icsd": ["33786"], "band_gap": [2.7195], "density": [3.547094], "density_atomic": [20.56369], "deprecated": [false], "efermi": [-0.8636282], "energy_above_hull": [0.01462781], "energy_per_atom": [-11.06485], "formation_energy_per_atom": [-2.535566], "homogeneous_poisson": [0.358], "is_gap_direct": [false], "is_magnetic": [false], "is_metal": [false], "is_stable": [false], "nelements": [2], "nsites": [8], "num_magnetic_sites": [0], "num_unique_magnetic_sites": [0], "theoretical": [false], "total_magnetization": [0.0], "total_magnetization_normalized_formula_units": [0.0], "total_magnetization_normalized_vol": [0.0], "uncorrected_energy_per_atom": [-11.06485], "universal_anisotropy": [9.583], "volume": [164.5095], "cbm": [1.8204], "e_electronic": [2.598446], "e_ionic": [6.190746], "e_total": [8.789193], "n": [1.61197], "vbm": [-0.8991]}