{"includesElement": ["", "Ti", "Pt"], "includesElement___series_id": [8], "includesElement__abundance_crust": [5650.0, 0.005], "includesElement__atomic_number": [22, 78], "includesElement__atomic_radius": [140.0, 135.0], "includesElement__atomic_radius_rahm": [257.0, 230.0], "includesElement__atomic_volume": [10.6, 9.1], "includesElement__atomic_weight": [47.867, 195.084], "includesElement__covalent_radius_cordero": [160.0, 136.0], "includesElement__covalent_radius_pyykko": [136.0, 123.0], "includesElement__covalent_radius_pyykko_double": [117.0, 112.0], "includesElement__covalent_radius_pyykko_triple": [108.0, 110.0], "includesElement__density": [4.506, 21.5], "includesElement__dipole_polarizability": [100.0, 48.0], "includesElement__dipole_polarizability_unc": [10.0, 4.0], "includesElement__discovery_year": [1791, 1735], "includesElement__electron_affinity": [0.079, 2.128], "includesElement__electronegativity_allred-rochow": [0.0001703071, 0.0002346487], "includesElement__electronegativity_cottrell-sutton": [0.1521899, 0.1698876], "includesElement__electronegativity_ghosh": [0.1233637, 0.25691], "includesElement__electronegativity_gordy": [0.02316176, 0.02886179], "includesElement__electronegativity_mulliken": [3.45356, 5.543415], "includesElement__electronegativity_nagle": [0.3419952, 0.5928156], "includesElement__electronegativity_pauling": [1.54, 2.2], "includesElement__electronegativity_sanderson": [0.4055462, 1.45101], "includesElement__en_ghosh": [0.1233637, 0.25691], "includesElement__en_pauling": [1.54, 2.2], "includesElement__evaporation_heat": [422.6, 470.0], "includesElement__fusion_heat": [18.8, 21.76], "includesElement__glawe_number": [51, 64], "includesElement__group_id": [4, 10], "includesElement__heat_of_formation": [473.0, 565.7], "includesElement__is_radioactive": [false], "includesElement__lattice_constant": [2.95, 3.92], "includesElement__mendeleev_number": [43, 69], "includesElement__molar_heat_capacity": [25.06, 25.86], "includesElement__period": [4, 6], "includesElement__pettifor_number": [51, 68], "includesElement__specific_heat_capacity": [0.523, 0.133], "includesElement__vdw_radius": [211.0, 213.0], "includesElement__vdw_radius_alvarez": [246.0, 229.0], "includesElement__vdw_radius_mm3": [239.0], "includesElement__vdw_radius_uff": [317.5, 275.4], "includesElement__abundance_sea": [0.001], "includesElement__atomic_weight_uncertainty": [0.001, 0.009], "includesElement__c6_gb": [1200.0, 470.0], "includesElement__covalent_radius_bragg": [140.0], "includesElement__electronegativity_allen": [8.17, 10.16], "includesElement__en_allen": [8.17, 10.16], "includesElement__metallic_radius": [132.0, 130.0], "includesElement__metallic_radius_c12": [147.0, 139.0], "includesElement__thermal_conductivity": [21.9, 71.6], "includesElement__vdw_radius_batsanov": [215.0, 205.0], "includesElement__c6": [1044.0], "includesElement__gas_basicity": [853.7], "includesElement__proton_affinity": [876.0], "formula": ["Pt3Ti1"], "spacegroup": ["221"], "thermalConductivity": [9.66877], "icsd": ["185640"], "band_gap": [0.0], "density": [17.39294], "density_atomic": [15.11129], "deprecated": [false], "efermi": [8.003735], "energy_above_hull": [0.004863833], "energy_per_atom": [-42.77292], "formation_energy_per_atom": [-0.9226916], "homogeneous_poisson": [0.305], "is_gap_direct": [false], "is_magnetic": [false], "is_metal": [true], "is_stable": [false], "nelements": [2], "nsites": [4], "num_magnetic_sites": [0], "num_unique_magnetic_sites": [0], "theoretical": [false], "total_magnetization": [1.24e-05], "total_magnetization_normalized_formula_units": [1.24e-05], "total_magnetization_normalized_vol": [2.051446e-07], "uncorrected_energy_per_atom": [-42.77292], "universal_anisotropy": [0.505], "volume": [60.44516]}