{"includesElement": ["", "Nb", "H"], "includesElement___series_id": [8, 1], "includesElement__abundance_crust": [20.0, 1400.0], "includesElement__atomic_number": [41, 1], "includesElement__atomic_radius": [145.0, 25.0], "includesElement__atomic_radius_rahm": [251.0, 154.0], "includesElement__atomic_volume": [10.8, 14.1], "includesElement__atomic_weight": [92.90637, 1.008], "includesElement__covalent_radius_cordero": [164.0, 31.0], "includesElement__covalent_radius_pyykko": [147.0, 32.0], "includesElement__covalent_radius_pyykko_double": [125.0], "includesElement__covalent_radius_pyykko_triple": [116.0], "includesElement__density": [8.57, 8.2e-05], "includesElement__dipole_polarizability": [98.0, 4.50711], "includesElement__dipole_polarizability_unc": [8.0, 3e-05], "includesElement__discovery_year": [1801, 1766], "includesElement__electron_affinity": [0.917406, 0.754195], "includesElement__electronegativity_allred-rochow": [0.0001295756, 0.0009765625], "includesElement__electronegativity_cottrell-sutton": [0.1380131, 0.1767767], "includesElement__electronegativity_ghosh": [0.1280782, 0.2638], "includesElement__electronegativity_gordy": [0.01904762, 0.03125], "includesElement__electronegativity_mulliken": [3.838128, 7.176315], "includesElement__electronegativity_nagle": [0.3708924, 0.6053882], "includesElement__electronegativity_pauling": [1.6, 2.2], "includesElement__electronegativity_sanderson": [0.5561695, 2.187771], "includesElement__en_ghosh": [0.1280782, 0.2638], "includesElement__en_pauling": [1.6, 2.2], "includesElement__evaporation_heat": [680.0, 0.904], "includesElement__fusion_heat": [26.8, 0.117], "includesElement__glawe_number": [53, 103], "includesElement__group_id": [5, 1], "includesElement__heat_of_formation": [733.0, 217.998], "includesElement__is_radioactive": [false], "includesElement__lattice_constant": [3.3, 3.75], "includesElement__mendeleev_number": [48, 105], "includesElement__molar_heat_capacity": [24.6, 28.836], "includesElement__period": [5, 1], "includesElement__pettifor_number": [52, 103], "includesElement__specific_heat_capacity": [0.265, 14.304], "includesElement__vdw_radius": [218.0, 110.0], "includesElement__vdw_radius_alvarez": [256.0, 120.0], "includesElement__vdw_radius_mm3": [243.0, 162.0], "includesElement__vdw_radius_uff": [316.5, 288.6], "includesElement__abundance_sea": [1e-05, 108000.0], "includesElement__atomic_weight_uncertainty": [2e-05], "includesElement__c6_gb": [1140.0, 6.51], "includesElement__electronegativity_allen": [8.34, 13.61], "includesElement__en_allen": [8.34, 13.61], "includesElement__metallic_radius": [134.0], "includesElement__metallic_radius_c12": [146.0, 78.0], "includesElement__thermal_conductivity": [53.7, 0.1815], "includesElement__vdw_radius_batsanov": [215.0], "includesElement__is_monoisotopic": [true], "includesElement__c6": [6.499027], "includesElement__vdw_radius_dreiding": [319.5], "includesElement__vdw_radius_bondi": [120.0], "includesElement__vdw_radius_rt": [110.0], "formula": ["H2Nb1"], "spacegroup": ["225"], "thermalConductivity": [16.2956], "icsd": ["164606"], "band_gap": [0.0], "density": [6.609681], "density_atomic": [7.949054], "deprecated": [false], "efermi": [4.958745], "energy_above_hull": [0.0], "energy_per_atom": [-10.79254], "formation_energy_per_atom": [-0.2444409], "homogeneous_poisson": [0.327], "is_gap_direct": [false], "is_magnetic": [false], "is_metal": [true], "is_stable": [true], "nelements": [2], "nsites": [3], "num_magnetic_sites": [0], "num_unique_magnetic_sites": [0], "theoretical": [false], "total_magnetization": [1e-06], "total_magnetization_normalized_formula_units": [1e-06], "total_magnetization_normalized_vol": [4.193371e-08], "uncorrected_energy_per_atom": [-10.79254], "universal_anisotropy": [0.03], "volume": [23.84716], "equilibrium_reaction_energy_per_atom": [-0.119449]}