{"includesElement": ["", "Ho", "H"], "includesElement___series_id": [9, 1], "includesElement__abundance_crust": [1.3, 1400.0], "includesElement__atomic_number": [67, 1], "includesElement__atomic_radius": [175.0, 25.0], "includesElement__atomic_radius_rahm": [273.0, 154.0], "includesElement__atomic_volume": [18.7, 14.1], "includesElement__atomic_weight": [164.9303, 1.008], "includesElement__covalent_radius_cordero": [192.0, 31.0], "includesElement__covalent_radius_pyykko": [166.0, 32.0], "includesElement__covalent_radius_pyykko_double": [133.0], "includesElement__density": [8.8, 8.2e-05], "includesElement__dipole_polarizability": [156.0, 4.50711], "includesElement__dipole_polarizability_unc": [10.0, 3e-05], "includesElement__discovery_year": [1878, 1766], "includesElement__electronegativity_allred-rochow": [0.0001034258, 0.0009765625], "includesElement__electronegativity_cottrell-sutton": [0.1310293, 0.1767767], "includesElement__electronegativity_ghosh": [0.207795, 0.2638], "includesElement__electronegativity_gordy": [0.01716867, 0.03125], "includesElement__electronegativity_mulliken": [3.01075, 7.176315], "includesElement__electronegativity_nagle": [0.4367902, 0.6053882], "includesElement__electronegativity_pauling": [1.23, 2.2], "includesElement__electronegativity_sanderson": [0.5434919, 2.187771], "includesElement__en_ghosh": [0.207795, 0.2638], "includesElement__en_pauling": [1.23, 2.2], "includesElement__evaporation_heat": [301.0, 0.904], "includesElement__glawe_number": [23, 103], "includesElement__heat_of_formation": [300.6, 217.998], "includesElement__is_radioactive": [false], "includesElement__lattice_constant": [3.58, 3.75], "includesElement__mendeleev_number": [33, 105], "includesElement__molar_heat_capacity": [27.15, 28.836], "includesElement__period": [6, 1], "includesElement__pettifor_number": [24, 103], "includesElement__specific_heat_capacity": [0.165, 14.304], "includesElement__vdw_radius": [230.0, 110.0], "includesElement__vdw_radius_alvarez": [281.0, 120.0], "includesElement__vdw_radius_mm3": [267.0, 162.0], "includesElement__vdw_radius_uff": [340.9, 288.6], "includesElement__abundance_sea": [2.2e-07, 108000.0], "includesElement__atomic_weight_uncertainty": [2e-05], "includesElement__c6_gb": [2280.0, 6.51], "includesElement__is_monoisotopic": [true], "includesElement__electron_affinity": [0.754195], "includesElement__fusion_heat": [0.117], "includesElement__group_id": [1], "includesElement__electronegativity_allen": [13.61], "includesElement__en_allen": [13.61], "includesElement__metallic_radius_c12": [78.0], "includesElement__thermal_conductivity": [0.1815], "includesElement__c6": [6.499027], "includesElement__vdw_radius_dreiding": [319.5], "includesElement__vdw_radius_bondi": [120.0], "includesElement__vdw_radius_rt": [110.0], "formula": ["H2Ho1"], "spacegroup": ["225"], "thermalConductivity": [10.173], "icsd": ["56057"], "band_gap": [0.0], "density": [8.16935], "density_atomic": [11.31141], "deprecated": [false], "efermi": [3.117708], "energy_above_hull": [0.0], "energy_per_atom": [-14.06356], "formation_energy_per_atom": [-0.7996994], "homogeneous_poisson": [0.234], "is_gap_direct": [false], "is_magnetic": [false], "is_metal": [true], "is_stable": [true], "nelements": [2], "nsites": [3], "num_magnetic_sites": [0], "num_unique_magnetic_sites": [0], "theoretical": [false], "total_magnetization": [1.48e-05], "total_magnetization_normalized_formula_units": [1.48e-05], "total_magnetization_normalized_vol": [4.361377e-07], "uncorrected_energy_per_atom": [-14.06356], "universal_anisotropy": [0.528], "volume": [33.93424], "equilibrium_reaction_energy_per_atom": [-0.1576942]}