{"includesElement": ["", "Cs", "Br"], "includesElement___series_id": [3, 6], "includesElement__abundance_crust": [3.0, 2.4], "includesElement__atomic_number": [55, 35], "includesElement__atomic_radius": [260.0, 115.0], "includesElement__atomic_radius_rahm": [249.0, 219.0], "includesElement__atomic_volume": [70.0, 23.5], "includesElement__atomic_weight": [132.9055, 79.904], "includesElement__covalent_radius_cordero": [244.0, 120.0], "includesElement__covalent_radius_pyykko": [232.0, 114.0], "includesElement__covalent_radius_pyykko_double": [209.0, 109.0], "includesElement__density": [1.873, 3.1028], "includesElement__dipole_polarizability": [400.9, 21.0], "includesElement__dipole_polarizability_unc": [0.7, 1.0], "includesElement__discovery_year": [1860, 1826], "includesElement__electron_affinity": [0.471626, 3.363588], "includesElement__electronegativity_allred-rochow": [4.087396e-05, 0.0005847953], "includesElement__electronegativity_cottrell-sutton": [0.09737946, 0.2581989], "includesElement__electronegativity_ghosh": [0.1542125, 0.2412578], "includesElement__electronegativity_gordy": [0.009482759, 0.06666667], "includesElement__electronegativity_mulliken": [2.182766, 7.588699], "includesElement__electronegativity_nagle": [0.1356192, 0.6933613], "includesElement__electronegativity_pauling": [0.79, 2.96], "includesElement__electronegativity_sanderson": [0.1814531, 1.049026], "includesElement__en_ghosh": [0.1542125, 0.2412578], "includesElement__en_pauling": [0.79, 2.96], "includesElement__evaporation_heat": [68.3, 29.56], "includesElement__fusion_heat": [2.09, 10.57], "includesElement__glawe_number": [8, 100], "includesElement__group_id": [1, 17], "includesElement__heat_of_formation": [76.5, 111.85], "includesElement__is_radioactive": [false], "includesElement__lattice_constant": [6.05, 6.67], "includesElement__mendeleev_number": [5, 108], "includesElement__molar_heat_capacity": [32.21, 75.69], "includesElement__period": [6, 4], "includesElement__pettifor_number": [8, 98], "includesElement__specific_heat_capacity": [0.242, 0.474], "includesElement__vdw_radius": [343.0, 185.0], "includesElement__vdw_radius_alvarez": [348.0, 186.0], "includesElement__vdw_radius_mm3": [344.0, 222.0], "includesElement__vdw_radius_uff": [451.7, 418.9], "includesElement__abundance_sea": [0.0003, 67.3], "includesElement__atomic_weight_uncertainty": [6e-08], "includesElement__c6_gb": [6660.0, 187.0], "includesElement__covalent_radius_bragg": [237.0, 119.0], "includesElement__electronegativity_allen": [3.898, 15.88], "includesElement__en_allen": [3.898, 15.88], "includesElement__metallic_radius": [235.0], "includesElement__metallic_radius_c12": [267.0, 117.0], "includesElement__thermal_conductivity": [35.9, 0.005], "includesElement__vdw_radius_batsanov": [300.0, 190.0], "includesElement__is_monoisotopic": [true], "includesElement__vdw_radius_truhlar": [343.0], "includesElement__covalent_radius_pyykko_triple": [110.0], "includesElement__c6": [162.0], "includesElement__vdw_radius_dreiding": [395.0], "includesElement__gas_basicity": [531.2], "includesElement__proton_affinity": [554.4], "includesElement__vdw_radius_bondi": [183.0], "includesElement__vdw_radius_rt": [187.0], "formula": ["Br1Cs1"], "spacegroup": ["221"], "thermalConductivity": [0.587776], "icsd": ["22174"], "band_gap": [4.2392], "density": [4.366106], "density_atomic": [40.46838], "deprecated": [false], "efermi": [-0.5251727], "energy_above_hull": [0.0], "energy_per_atom": [-21.19796], "formation_energy_per_atom": [-2.072678], "is_gap_direct": [false], "is_magnetic": [false], "is_metal": [false], "is_stable": [true], "nelements": [2], "nsites": [2], "num_magnetic_sites": [0], "num_unique_magnetic_sites": [0], "theoretical": [false], "total_magnetization": [0.0], "total_magnetization_normalized_formula_units": [0.0], "total_magnetization_normalized_vol": [0.0], "uncorrected_energy_per_atom": [-21.19796], "volume": [80.93675], "cbm": [3.7016], "equilibrium_reaction_energy_per_atom": [-1.285403], "vbm": [-0.5376]}