{"includesElement": ["", "U", "Te"], "includesElement___series_id": [10, 5], "includesElement__abundance_crust": [2.7, 0.001], "includesElement__atomic_number": [92, 52], "includesElement__atomic_radius": [175.0, 140.0], "includesElement__atomic_radius_rahm": [283.0, 242.0], "includesElement__atomic_volume": [12.5, 20.5], "includesElement__atomic_weight": [238.0289, 127.6], "includesElement__covalent_radius_cordero": [196.0, 138.0], "includesElement__covalent_radius_pyykko": [170.0, 136.0], "includesElement__covalent_radius_pyykko_double": [134.0, 128.0], "includesElement__covalent_radius_pyykko_triple": [118.0, 121.0], "includesElement__density": [19.1, 6.232], "includesElement__dipole_polarizability": [129.0, 38.0], "includesElement__dipole_polarizability_unc": [17.0, 4.0], "includesElement__discovery_year": [1789, 1782], "includesElement__electronegativity_allred-rochow": [0.0001038062, 0.0003757569], "includesElement__electronegativity_cottrell-sutton": [0.1328422, 0.2260596], "includesElement__electronegativity_ghosh": [0.13207, 0.2056992], "includesElement__electronegativity_gordy": [0.01764706, 0.05110294], "includesElement__electronegativity_mulliken": [3.097025, 5.490268], "includesElement__electronegativity_nagle": [0.3596283, 0.5404919], "includesElement__electronegativity_pauling": [1.7, 2.1], "includesElement__electronegativity_sanderson": [0.618118, 0.8622506], "includesElement__en_ghosh": [0.13207, 0.2056992], "includesElement__en_pauling": [1.7, 2.1], "includesElement__evaporation_heat": [417.0, 49.8], "includesElement__fusion_heat": [12.6, 17.91], "includesElement__glawe_number": [36, 94], "includesElement__heat_of_formation": [533.0, 196.6], "includesElement__is_radioactive": [true, false], "includesElement__lattice_constant": [2.85, 4.45], "includesElement__mendeleev_number": [20, 102], "includesElement__molar_heat_capacity": [27.665, 25.73], "includesElement__period": [7, 5], "includesElement__pettifor_number": [45, 92], "includesElement__specific_heat_capacity": [0.116, 0.202], "includesElement__vdw_radius": [241.0, 206.0], "includesElement__vdw_radius_alvarez": [271.0, 199.0], "includesElement__vdw_radius_mm3": [252.0, 244.0], "includesElement__vdw_radius_uff": [339.5, 447.0], "includesElement__abundance_sea": [0.0032], "includesElement__atomic_weight_uncertainty": [3e-05, 0.03], "includesElement__thermal_conductivity": [27.5, 14.3], "includesElement__vdw_radius_batsanov": [230.0, 210.0], "includesElement__gas_basicity": [973.2], "includesElement__proton_affinity": [995.2], "includesElement__electron_affinity": [1.970876], "includesElement__group_id": [16], "includesElement__c6_gb": [471.0], "includesElement__covalent_radius_bragg": [133.0], "includesElement__electronegativity_allen": [12.76], "includesElement__en_allen": [12.76], "includesElement__metallic_radius": [137.0], "includesElement__metallic_radius_c12": [160.0], "includesElement__c6": [445.0], "includesElement__vdw_radius_dreiding": [423.0], "includesElement__vdw_radius_bondi": [206.0], "formula": ["Te1U1"], "spacegroup": ["221"], "thermalConductivity": [8.90632], "icsd": ["104195"], "band_gap": [0.0], "density": [11.48849], "density_atomic": [26.42389], "deprecated": [false], "efermi": [10.71621], "energy_above_hull": [0.09633642], "energy_per_atom": [-53.55369], "formation_energy_per_atom": [-0.8740584], "is_gap_direct": [false], "is_magnetic": [true], "is_metal": [true], "is_stable": [false], "nelements": [2], "nsites": [2], "num_magnetic_sites": [1], "num_unique_magnetic_sites": [1], "theoretical": [false], "total_magnetization": [3.681522], "total_magnetization_normalized_formula_units": [3.681522], "total_magnetization_normalized_vol": [0.06966276], "uncorrected_energy_per_atom": [-7.65859], "volume": [52.84777]}