{"includesElement": ["", "Si", "F"], "includesElement___series_id": [5, 6], "includesElement__abundance_crust": [282000.0, 585.0], "includesElement__atomic_number": [14, 9], "includesElement__atomic_radius": [110.0, 50.0], "includesElement__atomic_radius_rahm": [232.0, 163.0], "includesElement__atomic_volume": [12.1, 17.1], "includesElement__atomic_weight": [28.085, 18.9984], "includesElement__covalent_radius_cordero": [111.0, 57.0], "includesElement__covalent_radius_pyykko": [116.0, 64.0], "includesElement__covalent_radius_pyykko_double": [107.0, 59.0], "includesElement__covalent_radius_pyykko_triple": [102.0, 53.0], "includesElement__density": [2.3296, 0.001553], "includesElement__dipole_polarizability": [37.3, 3.74], "includesElement__dipole_polarizability_unc": [0.7, 0.08], "includesElement__discovery_year": [1824, 1886], "includesElement__electron_affinity": [1.389521, 3.40119], "includesElement__electronegativity_allred-rochow": [0.0003084126, 0.001269531], "includesElement__electronegativity_cottrell-sutton": [0.1891451, 0.2850439], "includesElement__electronegativity_ghosh": [0.178503, 0.344443], "includesElement__electronegativity_gordy": [0.03577586, 0.08125], "includesElement__electronegativity_mulliken": [4.770602, 10.412], "includesElement__electronegativity_nagle": [0.4750986, 1.232373], "includesElement__electronegativity_pauling": [1.9, 3.98], "includesElement__electronegativity_sanderson": [0.3468158, 1.017681], "includesElement__en_ghosh": [0.178503, 0.344443], "includesElement__en_pauling": [1.9, 3.98], "includesElement__evaporation_heat": [383.0, 6.54], "includesElement__fusion_heat": [50.6, 0.51], "includesElement__glawe_number": [85, 102], "includesElement__group_id": [14, 17], "includesElement__heat_of_formation": [450.0, 79.335], "includesElement__is_radioactive": [false], "includesElement__lattice_constant": [5.43], "includesElement__mendeleev_number": [88, 106], "includesElement__molar_heat_capacity": [19.99, 31.304], "includesElement__period": [3, 2], "includesElement__pettifor_number": [85, 102], "includesElement__specific_heat_capacity": [0.712, 0.824], "includesElement__vdw_radius": [210.0, 147.0], "includesElement__vdw_radius_alvarez": [219.0, 146.0], "includesElement__vdw_radius_mm3": [229.0, 171.0], "includesElement__vdw_radius_uff": [429.5, 336.4], "includesElement__abundance_sea": [2.2, 1.3], "includesElement__c6_gb": [308.0, 10.2], "includesElement__covalent_radius_bragg": [117.0, 67.0], "includesElement__electronegativity_allen": [11.33, 24.8], "includesElement__en_allen": [11.33, 24.8], "includesElement__metallic_radius": [117.0], "includesElement__metallic_radius_c12": [138.0], "includesElement__thermal_conductivity": [149.0, 0.028], "includesElement__vdw_radius_batsanov": [210.0, 150.0], "includesElement__c6": [305.0, 9.52], "includesElement__vdw_radius_dreiding": [427.0, 347.2], "includesElement__gas_basicity": [814.1, 315.1], "includesElement__proton_affinity": [837.0, 340.1], "includesElement__vdw_radius_bondi": [210.0, 147.0], "includesElement__atomic_weight_uncertainty": [6e-09], "includesElement__is_monoisotopic": [true], "includesElement__vdw_radius_rt": [146.0], "formula": ["F4Si1"], "spacegroup": ["217"], "thermalConductivity": [23.3813], "icsd": ["14122"], "band_gap": [7.7173], "density": [2.344787], "density_atomic": [14.74142], "deprecated": [false], "efermi": [-4.950915], "energy_above_hull": [0.0], "energy_per_atom": [-7.562547], "formation_energy_per_atom": [-3.308871], "homogeneous_poisson": [0.236], "is_gap_direct": [false], "is_magnetic": [false], "is_metal": [false], "is_stable": [true], "nelements": [2], "nsites": [5], "num_magnetic_sites": [0], "num_unique_magnetic_sites": [0], "theoretical": [false], "total_magnetization": [0.0], "total_magnetization_normalized_formula_units": [0.0], "total_magnetization_normalized_vol": [0.0], "uncorrected_energy_per_atom": [-7.562547], "universal_anisotropy": [0.004], "volume": [73.70708], "cbm": [2.6508], "e_electronic": [1.630295], "e_ionic": [0.5386043], "e_total": [2.1689], "equilibrium_reaction_energy_per_atom": [-3.308871], "n": [1.27683], "vbm": [-5.0665], "e_ij_max": [0.07113714]}