{"includesElement": ["", "P", "Nb"], "includesElement___series_id": [1, 8], "includesElement__abundance_crust": [1050.0, 20.0], "includesElement__atomic_number": [15, 41], "includesElement__atomic_radius": [100.0, 145.0], "includesElement__atomic_radius_rahm": [223.0, 251.0], "includesElement__atomic_volume": [17.0, 10.8], "includesElement__atomic_weight": [30.97376, 92.90637], "includesElement__covalent_radius_cordero": [107.0, 164.0], "includesElement__covalent_radius_pyykko": [111.0, 147.0], "includesElement__covalent_radius_pyykko_double": [102.0, 125.0], "includesElement__covalent_radius_pyykko_triple": [94.0, 116.0], "includesElement__density": [1.823, 8.57], "includesElement__dipole_polarizability": [25.0, 98.0], "includesElement__dipole_polarizability_unc": [1.0, 8.0], "includesElement__discovery_year": [1669, 1801], "includesElement__electron_affinity": [0.746607, 0.917406], "includesElement__electronegativity_allred-rochow": [0.0003895788, 0.0001295756], "includesElement__electronegativity_cottrell-sutton": [0.2079501, 0.1380131], "includesElement__electronegativity_ghosh": [0.206931, 0.1280782], "includesElement__electronegativity_gordy": [0.04324324, 0.01904762], "includesElement__electronegativity_mulliken": [5.616646, 3.838128], "includesElement__electronegativity_nagle": [0.5848035, 0.3708924], "includesElement__electronegativity_pauling": [2.19, 1.6], "includesElement__electronegativity_sanderson": [0.4510269, 0.5561695], "includesElement__en_ghosh": [0.206931, 0.1280782], "includesElement__en_pauling": [2.19, 1.6], "includesElement__evaporation_heat": [49.8, 680.0], "includesElement__fusion_heat": [2.51, 26.8], "includesElement__glawe_number": [89, 53], "includesElement__group_id": [15, 5], "includesElement__heat_of_formation": [316.5, 733.0], "includesElement__is_radioactive": [false], "includesElement__lattice_constant": [7.17, 3.3], "includesElement__mendeleev_number": [94, 48], "includesElement__molar_heat_capacity": [23.824, 24.6], "includesElement__period": [3, 5], "includesElement__pettifor_number": [90, 52], "includesElement__specific_heat_capacity": [0.769, 0.265], "includesElement__vdw_radius": [180.0, 218.0], "includesElement__vdw_radius_alvarez": [190.0, 256.0], "includesElement__vdw_radius_mm3": [222.0, 243.0], "includesElement__vdw_radius_uff": [414.7, 316.5], "includesElement__abundance_sea": [0.06, 1e-05], "includesElement__atomic_weight_uncertainty": [5e-09, 2e-05], "includesElement__c6_gb": [187.0, 1140.0], "includesElement__electronegativity_allen": [13.33, 8.34], "includesElement__en_allen": [13.33, 8.34], "includesElement__metallic_radius": [110.0, 134.0], "includesElement__metallic_radius_c12": [128.0, 146.0], "includesElement__vdw_radius_batsanov": [195.0, 215.0], "includesElement__c6": [185.0], "includesElement__is_monoisotopic": [true], "includesElement__vdw_radius_dreiding": [415.0], "includesElement__gas_basicity": [604.8], "includesElement__proton_affinity": [626.8], "includesElement__vdw_radius_bondi": [180.0], "includesElement__thermal_conductivity": [53.7], "formula": ["Nb2P2"], "spacegroup": ["141"], "thermalConductivity": [16.883], "icsd": ["76027"], "band_gap": [0.0], "density": [6.347578], "density_atomic": [16.20365], "deprecated": [false], "efermi": [7.244681], "energy_above_hull": [0.6020631], "energy_per_atom": [-8.144989], "formation_energy_per_atom": [-0.3866002], "homogeneous_poisson": [0.837], "is_gap_direct": [false], "is_magnetic": [false], "is_metal": [true], "is_stable": [false], "nelements": [2], "nsites": [4], "num_magnetic_sites": [0], "num_unique_magnetic_sites": [0], "theoretical": [false], "total_magnetization": [0.0009971], "total_magnetization_normalized_formula_units": [0.00049855], "total_magnetization_normalized_vol": [1.538388e-05], "uncorrected_energy_per_atom": [-8.144989], "universal_anisotropy": [-6.085], "volume": [64.81459]}