{"includesElement": ["", "Ge", "Mn"], "includesElement___series_id": [5, 8], "includesElement__abundance_crust": [1.5, 950.0], "includesElement__atomic_number": [32, 25], "includesElement__atomic_radius": [125.0, 140.0], "includesElement__atomic_radius_rahm": [234.0, 242.0], "includesElement__atomic_volume": [13.6, 7.39], "includesElement__atomic_weight": [72.63, 54.93804], "includesElement__covalent_radius_cordero": [120.0, 150.0], "includesElement__covalent_radius_pyykko": [121.0, 119.0], "includesElement__covalent_radius_pyykko_double": [111.0, 105.0], "includesElement__covalent_radius_pyykko_triple": [114.0, 103.0], "includesElement__density": [5.3234, 7.3], "includesElement__dipole_polarizability": [40.0, 68.0], "includesElement__dipole_polarizability_unc": [1.0, 9.0], "includesElement__discovery_year": [1886, 1774], "includesElement__electron_affinity": [1.232712], "includesElement__electronegativity_allred-rochow": [0.0003859026, 0.0002542193], "includesElement__electronegativity_cottrell-sutton": [0.2160884, 0.1739313], "includesElement__electronegativity_ghosh": [0.1895892, 0.1352844], "includesElement__electronegativity_gordy": [0.04669421, 0.0302521], "includesElement__electronegativity_mulliken": [4.566073, 3.717009], "includesElement__electronegativity_nagle": [0.4641589, 0.4686656], "includesElement__electronegativity_pauling": [2.01, 1.55], "includesElement__electronegativity_sanderson": [0.8001471, 0.6707264], "includesElement__en_ghosh": [0.1895892, 0.1352844], "includesElement__en_pauling": [2.01, 1.55], "includesElement__evaporation_heat": [328.0, 221.0], "includesElement__fusion_heat": [36.8, 13.4], "includesElement__glawe_number": [84, 72], "includesElement__group_id": [14, 7], "includesElement__heat_of_formation": [372.0, 283.3], "includesElement__is_radioactive": [false], "includesElement__lattice_constant": [5.66, 8.89], "includesElement__mendeleev_number": [89, 55], "includesElement__molar_heat_capacity": [23.222, 26.32], "includesElement__period": [4], "includesElement__pettifor_number": [84, 60], "includesElement__specific_heat_capacity": [0.32, 0.479], "includesElement__vdw_radius": [211.0, 205.0], "includesElement__vdw_radius_alvarez": [229.0, 245.0], "includesElement__vdw_radius_mm3": [244.0, 224.0], "includesElement__vdw_radius_uff": [428.0, 296.1], "includesElement__abundance_sea": [5e-05, 0.0002], "includesElement__atomic_weight_uncertainty": [0.008, 3e-06], "includesElement__c6_gb": [365.0, 635.0], "includesElement__electronegativity_allen": [11.8, 10.34], "includesElement__en_allen": [11.8, 10.34], "includesElement__metallic_radius": [124.0, 118.0], "includesElement__metallic_radius_c12": [144.0, 127.0], "includesElement__thermal_conductivity": [60.2], "includesElement__vdw_radius_batsanov": [210.0, 205.0], "includesElement__c6": [354.0, 552.0], "includesElement__vdw_radius_dreiding": [427.0], "includesElement__vdw_radius_truhlar": [211.0], "includesElement__covalent_radius_bragg": [147.0], "includesElement__is_monoisotopic": [true], "includesElement__gas_basicity": [774.4], "includesElement__proton_affinity": [797.3], "formula": ["Ge1Mn3"], "spacegroup": ["221"], "thermalConductivity": [3.96202], "icsd": ["97743"], "band_gap": [0.0], "density": [8.098706], "density_atomic": [12.17176], "deprecated": [false], "efermi": [7.128038], "energy_above_hull": [0.08230691], "energy_per_atom": [-8.066609], "formation_energy_per_atom": [-0.03934024], "is_gap_direct": [false], "is_magnetic": [true], "is_metal": [true], "is_stable": [false], "nelements": [2], "nsites": [4], "num_magnetic_sites": [3], "num_unique_magnetic_sites": [1], "theoretical": [false], "total_magnetization": [5.323548], "total_magnetization_normalized_formula_units": [5.323548], "total_magnetization_normalized_vol": [0.1093422], "uncorrected_energy_per_atom": [-8.066609], "volume": [48.68702]}