{"includesElement": ["", "Ge", "Th"], "includesElement___series_id": [5, 10], "includesElement__abundance_crust": [1.5, 9.6], "includesElement__atomic_number": [32, 90], "includesElement__atomic_radius": [125.0, 180.0], "includesElement__atomic_radius_rahm": [234.0, 288.0], "includesElement__atomic_volume": [13.6, 19.8], "includesElement__atomic_weight": [72.63, 232.0377], "includesElement__covalent_radius_cordero": [120.0, 206.0], "includesElement__covalent_radius_pyykko": [121.0, 175.0], "includesElement__covalent_radius_pyykko_double": [111.0, 143.0], "includesElement__covalent_radius_pyykko_triple": [114.0, 136.0], "includesElement__density": [5.3234, 11.7], "includesElement__dipole_polarizability": [40.0, 217.0], "includesElement__dipole_polarizability_unc": [1.0, 54.0], "includesElement__discovery_year": [1886, 1828], "includesElement__electron_affinity": [1.232712], "includesElement__electronegativity_allred-rochow": [0.0003859026, 0.0001028571], "includesElement__electronegativity_cottrell-sutton": [0.2160884, 0.1341641], "includesElement__electronegativity_ghosh": [0.1895892, 0.10277], "includesElement__electronegativity_gordy": [0.04669421, 0.018], "includesElement__electronegativity_mulliken": [4.566073, 3.15335], "includesElement__electronegativity_nagle": [0.4641589, 0.2641598], "includesElement__electronegativity_pauling": [2.01, 1.3], "includesElement__electronegativity_sanderson": [0.8001471, 0.5557019], "includesElement__en_ghosh": [0.1895892, 0.10277], "includesElement__en_pauling": [2.01, 1.3], "includesElement__evaporation_heat": [328.0, 513.7], "includesElement__fusion_heat": [36.8, 16.11], "includesElement__glawe_number": [84, 34], "includesElement__group_id": [14], "includesElement__heat_of_formation": [372.0, 602.0], "includesElement__is_radioactive": [false, true], "includesElement__lattice_constant": [5.66, 5.08], "includesElement__mendeleev_number": [89, 16], "includesElement__molar_heat_capacity": [23.222, 27.32], "includesElement__period": [4, 7], "includesElement__pettifor_number": [84, 47], "includesElement__specific_heat_capacity": [0.32, 0.118], "includesElement__vdw_radius": [211.0, 245.0], "includesElement__vdw_radius_alvarez": [229.0, 293.0], "includesElement__vdw_radius_mm3": [244.0, 274.0], "includesElement__vdw_radius_uff": [428.0, 339.6], "includesElement__abundance_sea": [5e-05, 1e-06], "includesElement__atomic_weight_uncertainty": [0.008, 0.0004], "includesElement__c6_gb": [365.0], "includesElement__electronegativity_allen": [11.8], "includesElement__en_allen": [11.8], "includesElement__metallic_radius": [124.0], "includesElement__metallic_radius_c12": [144.0], "includesElement__thermal_conductivity": [60.2], "includesElement__vdw_radius_batsanov": [210.0, 240.0], "includesElement__c6": [354.0], "includesElement__vdw_radius_dreiding": [427.0], "includesElement__vdw_radius_truhlar": [211.0], "formula": ["Ge1Th1"], "spacegroup": ["225"], "thermalConductivity": [9.95447], "icsd": ["44502"], "band_gap": [0.0], "density": [8.950078], "density_atomic": [28.26399], "deprecated": [false], "efermi": [5.966925], "energy_above_hull": [0.0], "energy_per_atom": [-44.58806], "formation_energy_per_atom": [-0.9144355], "homogeneous_poisson": [0.288], "is_gap_direct": [false], "is_magnetic": [false], "is_metal": [true], "is_stable": [true], "nelements": [2], "nsites": [2], "num_magnetic_sites": [0], "num_unique_magnetic_sites": [0], "theoretical": [false], "total_magnetization": [5.2e-06], "total_magnetization_normalized_formula_units": [5.2e-06], "total_magnetization_normalized_vol": [9.198985e-08], "uncorrected_energy_per_atom": [-44.58806], "universal_anisotropy": [2.088], "volume": [56.52798], "equilibrium_reaction_energy_per_atom": [-0.1883918]}