{"includesElement": ["", "Si", "F", "K"], "includesElement___series_id": [5, 6, 3], "includesElement__abundance_crust": [282000.0, 585.0, 20900.0], "includesElement__atomic_number": [14, 9, 19], "includesElement__atomic_radius": [110.0, 50.0, 220.0], "includesElement__atomic_radius_rahm": [232.0, 163.0, 234.0], "includesElement__atomic_volume": [12.1, 17.1, 45.3], "includesElement__atomic_weight": [28.085, 18.9984, 39.0983], "includesElement__covalent_radius_cordero": [111.0, 57.0, 203.0], "includesElement__covalent_radius_pyykko": [116.0, 64.0, 196.0], "includesElement__covalent_radius_pyykko_double": [107.0, 59.0, 193.0], "includesElement__covalent_radius_pyykko_triple": [102.0, 53.0], "includesElement__density": [2.3296, 0.001553, 0.89], "includesElement__dipole_polarizability": [37.3, 3.74, 289.7], "includesElement__dipole_polarizability_unc": [0.7, 0.08, 0.3], "includesElement__discovery_year": [1824, 1886, 1807], "includesElement__electron_affinity": [1.389521, 3.40119, 0.50147], "includesElement__electronegativity_allred-rochow": [0.0003084126, 0.001269531, 5.726781e-05], "includesElement__electronegativity_cottrell-sutton": [0.1891451, 0.2850439, 0.1059457], "includesElement__electronegativity_ghosh": [0.178503, 0.344443, 0.0981896], "includesElement__electronegativity_gordy": [0.03577586, 0.08125, 0.01122449], "includesElement__electronegativity_mulliken": [4.770602, 10.412, 2.421067], "includesElement__electronegativity_nagle": [0.4750986, 1.232373, 0.1511299], "includesElement__electronegativity_pauling": [1.9, 3.98, 0.82], "includesElement__electronegativity_sanderson": [0.3468158, 1.017681, 0.1218383], "includesElement__en_ghosh": [0.178503, 0.344443, 0.0981896], "includesElement__en_pauling": [1.9, 3.98, 0.82], "includesElement__evaporation_heat": [383.0, 6.54, 2.33], "includesElement__fusion_heat": [50.6, 0.51, 102.5], "includesElement__glawe_number": [85, 102, 10], "includesElement__group_id": [14, 17, 1], "includesElement__heat_of_formation": [450.0, 79.335, 89.0], "includesElement__is_radioactive": [false], "includesElement__lattice_constant": [5.43, 5.23], "includesElement__mendeleev_number": [88, 106, 3], "includesElement__molar_heat_capacity": [19.99, 31.304, 29.6], "includesElement__period": [3, 2, 4], "includesElement__pettifor_number": [85, 102, 10], "includesElement__specific_heat_capacity": [0.712, 0.824, 0.757], "includesElement__vdw_radius": [210.0, 147.0, 275.0], "includesElement__vdw_radius_alvarez": [219.0, 146.0, 273.0], "includesElement__vdw_radius_mm3": [229.0, 171.0, 309.0], "includesElement__vdw_radius_uff": [429.5, 336.4, 381.2], "includesElement__abundance_sea": [2.2, 1.3, 399.0], "includesElement__c6_gb": [308.0, 10.2, 3910.0], "includesElement__covalent_radius_bragg": [117.0, 67.0, 207.0], "includesElement__electronegativity_allen": [11.33, 24.8, 4.34], "includesElement__en_allen": [11.33, 24.8, 4.34], "includesElement__metallic_radius": [117.0, 203.0], "includesElement__metallic_radius_c12": [138.0, 235.0], "includesElement__thermal_conductivity": [149.0, 0.028, 79.0], "includesElement__vdw_radius_batsanov": [210.0, 150.0, 280.0], "includesElement__c6": [305.0, 9.52, 3923.0], "includesElement__vdw_radius_dreiding": [427.0, 347.2], "includesElement__gas_basicity": [814.1, 315.1], "includesElement__proton_affinity": [837.0, 340.1], "includesElement__vdw_radius_bondi": [210.0, 147.0, 275.0], "includesElement__atomic_weight_uncertainty": [6e-09, 0.0001], "includesElement__is_monoisotopic": [true], "includesElement__vdw_radius_rt": [146.0], "formula": ["F6K2Si1"], "spacegroup": ["225"], "thermalConductivity": [2.62856], "icsd": ["29407"], "band_gap": [7.2234], "density": [2.87717], "density_atomic": [14.12542], "deprecated": [false], "efermi": [-2.591231], "energy_above_hull": [0.002719897], "energy_per_atom": [-7.775588], "formation_energy_per_atom": [-3.380897], "homogeneous_poisson": [0.279], "is_gap_direct": [true], "is_magnetic": [false], "is_metal": [false], "is_stable": [false], "nelements": [3], "nsites": [9], "num_magnetic_sites": [0], "num_unique_magnetic_sites": [0], "theoretical": [false], "total_magnetization": [0.0], "total_magnetization_normalized_formula_units": [0.0], "total_magnetization_normalized_vol": [0.0], "uncorrected_energy_per_atom": [-7.775588], "universal_anisotropy": [0.035], "volume": [127.1288], "cbm": [4.5055], "e_electronic": [1.85788], "e_ionic": [4.091507], "e_total": [5.949387], "n": [1.363041], "vbm": [-2.7179]}