{"includesElement": ["", "Sc", "Co"], "includesElement___series_id": [8], "includesElement__abundance_crust": [22.0, 25.0], "includesElement__atomic_number": [21, 27], "includesElement__atomic_radius": [160.0, 135.0], "includesElement__atomic_radius_rahm": [263.0, 233.0], "includesElement__atomic_volume": [15.0, 6.7], "includesElement__atomic_weight": [44.95591, 58.93319], "includesElement__covalent_radius_cordero": [170.0, 138.0], "includesElement__covalent_radius_pyykko": [148.0, 111.0], "includesElement__covalent_radius_pyykko_double": [116.0, 103.0], "includesElement__covalent_radius_pyykko_triple": [114.0, 96.0], "includesElement__density": [2.99, 8.86], "includesElement__dipole_polarizability": [97.0, 55.0], "includesElement__dipole_polarizability_unc": [10.0, 4.0], "includesElement__discovery_year": [1879, 1739], "includesElement__electron_affinity": [0.188, 0.6622565], "includesElement__electronegativity_allred-rochow": [0.0001369613, 0.0003165327], "includesElement__electronegativity_cottrell-sutton": [0.1423737, 0.1874437], "includesElement__electronegativity_ghosh": [0.1193833, 0.1432363], "includesElement__electronegativity_gordy": [0.02027027, 0.03513514], "includesElement__electronegativity_mulliken": [3.374745, 4.271633], "includesElement__electronegativity_nagle": [0.3138941, 0.5469655], "includesElement__electronegativity_pauling": [1.36, 1.88], "includesElement__electronegativity_sanderson": [0.3038674, 0.8832424], "includesElement__en_ghosh": [0.1193833, 0.1432363], "includesElement__en_pauling": [1.36, 1.88], "includesElement__evaporation_heat": [332.7, 389.1], "includesElement__fusion_heat": [15.8, 15.48], "includesElement__glawe_number": [48, 70], "includesElement__group_id": [3, 9], "includesElement__heat_of_formation": [377.8, 426.7], "includesElement__is_radioactive": [false], "includesElement__lattice_constant": [3.31, 2.51], "includesElement__mendeleev_number": [11, 63], "includesElement__molar_heat_capacity": [25.52, 24.81], "includesElement__period": [4], "includesElement__pettifor_number": [20, 64], "includesElement__specific_heat_capacity": [0.568, 0.421], "includesElement__vdw_radius": [215.0, 200.0], "includesElement__vdw_radius_alvarez": [258.0, 240.0], "includesElement__vdw_radius_mm3": [261.0, 223.0], "includesElement__vdw_radius_uff": [329.5, 287.2], "includesElement__abundance_sea": [6e-07, 2e-05], "includesElement__atomic_weight_uncertainty": [5e-06, 4e-06], "includesElement__c6_gb": [1570.0, 461.0], "includesElement__electronegativity_allen": [7.042, 10.86], "includesElement__en_allen": [7.042, 10.86], "includesElement__metallic_radius": [144.0, 116.0], "includesElement__metallic_radius_c12": [162.0, 125.0], "includesElement__thermal_conductivity": [15.8, 100.0], "includesElement__vdw_radius_batsanov": [230.0, 200.0], "includesElement__c6": [1383.0, 408.0], "includesElement__is_monoisotopic": [true], "includesElement__gas_basicity": [892.0, 719.8], "includesElement__proton_affinity": [914.0, 742.7], "includesElement__covalent_radius_bragg": [137.0], "formula": ["Co1Sc1"], "spacegroup": ["221"], "thermalConductivity": [19.4033], "icsd": ["102642"], "band_gap": [0.0], "density": [5.560205], "density_atomic": [15.51309], "deprecated": [false], "efermi": [4.951279], "energy_above_hull": [0.0], "energy_per_atom": [-12.60761], "formation_energy_per_atom": [-0.2912553], "homogeneous_poisson": [0.291], "is_gap_direct": [false], "is_magnetic": [true], "is_metal": [true], "is_stable": [true], "nelements": [2], "nsites": [2], "num_magnetic_sites": [2], "num_unique_magnetic_sites": [2], "theoretical": [false], "total_magnetization": [0.2330291], "total_magnetization_normalized_formula_units": [0.2330291], "total_magnetization_normalized_vol": [0.007510724], "uncorrected_energy_per_atom": [-12.60761], "universal_anisotropy": [0.078], "volume": [31.02618], "equilibrium_reaction_energy_per_atom": [-0.08681604]}