{"includesElement": ["", "Pb", "Pr"], "includesElement___series_id": [7, 9], "includesElement__abundance_crust": [14.0, 9.2], "includesElement__atomic_number": [82, 59], "includesElement__atomic_radius": [180.0, 185.0], "includesElement__atomic_radius_rahm": [249.0, 286.0], "includesElement__atomic_volume": [18.3, 20.8], "includesElement__atomic_weight": [207.2, 140.9077], "includesElement__covalent_radius_cordero": [146.0, 203.0], "includesElement__covalent_radius_pyykko": [144.0, 176.0], "includesElement__covalent_radius_pyykko_double": [135.0, 138.0], "includesElement__covalent_radius_pyykko_triple": [137.0, 128.0], "includesElement__density": [11.3, 6.773], "includesElement__dipole_polarizability": [47.0, 216.0], "includesElement__dipole_polarizability_unc": [3.0, 20.0], "includesElement__electron_affinity": [0.3567432, 0.962], "includesElement__electronegativity_allred-rochow": [0.000272473, 9.200671e-05], "includesElement__electronegativity_cottrell-sutton": [0.1980811, 0.1272524], "includesElement__electronegativity_ghosh": [0.177911, 0.17208], "includesElement__electronegativity_gordy": [0.03923611, 0.01619318], "includesElement__electronegativity_mulliken": [3.886711, 3.2175], "includesElement__electronegativity_nagle": [0.4398663, 0.284996], "includesElement__electronegativity_pauling": [1.8, 1.13], "includesElement__electronegativity_sanderson": [0.9313226, 0.428804], "includesElement__en_ghosh": [0.177911, 0.17208], "includesElement__en_pauling": [1.8, 1.13], "includesElement__evaporation_heat": [177.8, 331.0], "includesElement__fusion_heat": [4.77, 11.3], "includesElement__glawe_number": [82, 30], "includesElement__group_id": [14], "includesElement__heat_of_formation": [195.2, 356.9], "includesElement__is_radioactive": [false], "includesElement__lattice_constant": [4.95, 3.67], "includesElement__mendeleev_number": [91, 17], "includesElement__molar_heat_capacity": [26.84, 27.2], "includesElement__period": [6], "includesElement__pettifor_number": [82, 31], "includesElement__specific_heat_capacity": [0.13, 0.193], "includesElement__vdw_radius": [202.0, 240.0], "includesElement__vdw_radius_alvarez": [260.0, 292.0], "includesElement__vdw_radius_mm3": [274.0, 273.0], "includesElement__vdw_radius_uff": [429.7, 360.6], "includesElement__abundance_sea": [3e-05, 6.4e-07], "includesElement__atomic_weight_uncertainty": [0.1, 2e-05], "includesElement__c6_gb": [534.0, 3760.0], "includesElement__electronegativity_allen": [10.97], "includesElement__en_allen": [10.97], "includesElement__metallic_radius": [150.0], "includesElement__metallic_radius_c12": [170.0], "includesElement__thermal_conductivity": [35.3, 12.5], "includesElement__vdw_radius_batsanov": [230.0], "includesElement__vdw_radius_bondi": [202.0], "includesElement__discovery_year": [1885], "includesElement__is_monoisotopic": [true], "formula": ["Pb3Pr1"], "spacegroup": ["221"], "thermalConductivity": [1.73445], "icsd": ["105600"], "band_gap": [0.0], "density": [10.59387], "density_atomic": [29.87986], "deprecated": [false], "efermi": [7.037658], "energy_above_hull": [0.0], "energy_per_atom": [-50.04647], "formation_energy_per_atom": [-0.4816322], "homogeneous_poisson": [0.412], "is_gap_direct": [false], "is_magnetic": [false], "is_metal": [true], "is_stable": [true], "nelements": [2], "nsites": [4], "num_magnetic_sites": [0], "num_unique_magnetic_sites": [0], "theoretical": [false], "total_magnetization": [2.1e-06], "total_magnetization_normalized_formula_units": [2.1e-06], "total_magnetization_normalized_vol": [1.757036e-08], "uncorrected_energy_per_atom": [-50.04647], "universal_anisotropy": [8.958], "volume": [119.5194], "equilibrium_reaction_energy_per_atom": [-0.0281665]}