{"includesElement": ["", "Hg", "Li"], "includesElement___series_id": [8, 3], "includesElement__abundance_crust": [0.085, 20.0], "includesElement__atomic_number": [80, 3], "includesElement__atomic_radius": [150.0, 145.0], "includesElement__atomic_radius_rahm": [229.0, 220.0], "includesElement__atomic_volume": [14.8, 13.1], "includesElement__atomic_weight": [200.592, 6.94], "includesElement__covalent_radius_cordero": [132.0, 128.0], "includesElement__covalent_radius_pyykko": [133.0], "includesElement__covalent_radius_pyykko_double": [142.0, 124.0], "includesElement__density": [13.5336, 0.534], "includesElement__dipole_polarizability": [33.91, 164.1125], "includesElement__dipole_polarizability_unc": [0.34, 0.0005], "includesElement__electronegativity_allred-rochow": [0.0002459155, 7.3492e-05], "includesElement__electronegativity_cottrell-sutton": [0.1808501, 0.09886575], "includesElement__electronegativity_ghosh": [0.169, 0.105093], "includesElement__electronegativity_gordy": [0.03270677, 0.009774436], "includesElement__electronegativity_mulliken": [5.218752, 3.004882], "includesElement__electronegativity_nagle": [0.7073231, 0.1826499], "includesElement__electronegativity_pauling": [1.9, 0.98], "includesElement__electronegativity_sanderson": [1.164789, 0.04886793], "includesElement__en_ghosh": [0.169, 0.105093], "includesElement__en_pauling": [1.9, 0.98], "includesElement__evaporation_heat": [58.5, 148.0], "includesElement__fusion_heat": [2.295, 2.89], "includesElement__glawe_number": [76, 12], "includesElement__group_id": [12, 1], "includesElement__heat_of_formation": [61.38, 159.3], "includesElement__is_radioactive": [false], "includesElement__lattice_constant": [2.99, 3.49], "includesElement__mendeleev_number": [79, 1], "includesElement__molar_heat_capacity": [27.983, 24.86], "includesElement__period": [6, 2], "includesElement__pettifor_number": [74, 12], "includesElement__specific_heat_capacity": [0.14, 3.582], "includesElement__vdw_radius": [223.0, 182.0], "includesElement__vdw_radius_alvarez": [245.0, 212.0], "includesElement__vdw_radius_mm3": [253.0, 255.0], "includesElement__vdw_radius_uff": [270.5, 245.1], "includesElement__abundance_sea": [3e-05, 0.18], "includesElement__atomic_weight_uncertainty": [0.003], "includesElement__c6_gb": [268.0, 1410.0], "includesElement__electronegativity_allen": [10.44, 5.392], "includesElement__en_allen": [10.44, 5.392], "includesElement__metallic_radius": [139.0, 123.0], "includesElement__metallic_radius_c12": [151.0, 155.0], "includesElement__thermal_conductivity": [8.3, 84.8], "includesElement__vdw_radius_batsanov": [205.0, 220.0], "includesElement__discovery_year": [1817], "includesElement__electron_affinity": [0.618049], "includesElement__covalent_radius_bragg": [150.0], "includesElement__c6": [1392.0], "includesElement__vdw_radius_bondi": [181.0], "formula": ["Hg1Li1"], "spacegroup": ["221"], "thermalConductivity": [1.19085], "icsd": ["104308"], "band_gap": [0.0], "density": [9.577772], "density_atomic": [17.99027], "deprecated": [false], "efermi": [2.442798], "energy_above_hull": [0.0], "energy_per_atom": [-26.25329], "formation_energy_per_atom": [-0.3760316], "homogeneous_poisson": [0.312], "is_gap_direct": [false], "is_magnetic": [false], "is_metal": [true], "is_stable": [true], "nelements": [2], "nsites": [2], "num_magnetic_sites": [0], "num_unique_magnetic_sites": [0], "theoretical": [false], "total_magnetization": [3e-07], "total_magnetization_normalized_formula_units": [3e-07], "total_magnetization_normalized_vol": [8.337843e-09], "uncorrected_energy_per_atom": [-26.25329], "universal_anisotropy": [2.259], "volume": [35.98053], "equilibrium_reaction_energy_per_atom": [-0.127999]}