{"includesElement": ["", "Sb", "K"], "includesElement___series_id": [5, 3], "includesElement__abundance_crust": [0.2, 20900.0], "includesElement__atomic_number": [51, 19], "includesElement__atomic_radius": [145.0, 220.0], "includesElement__atomic_radius_rahm": [246.0, 234.0], "includesElement__atomic_volume": [18.4, 45.3], "includesElement__atomic_weight": [121.76, 39.0983], "includesElement__covalent_radius_cordero": [139.0, 203.0], "includesElement__covalent_radius_pyykko": [140.0, 196.0], "includesElement__covalent_radius_pyykko_double": [133.0, 193.0], "includesElement__covalent_radius_pyykko_triple": [127.0], "includesElement__density": [6.68, 0.89], "includesElement__dipole_polarizability": [43.0, 289.7], "includesElement__dipole_polarizability_unc": [2.0, 0.3], "includesElement__electron_affinity": [1.046, 0.50147], "includesElement__electronegativity_allred-rochow": [0.0003214286, 5.726781e-05], "includesElement__electronegativity_cottrell-sutton": [0.212132, 0.1059457], "includesElement__electronegativity_ghosh": [0.1918774, 0.0981896], "includesElement__electronegativity_gordy": [0.045, 0.01122449], "includesElement__electronegativity_mulliken": [4.827195, 2.421067], "includesElement__electronegativity_nagle": [0.4880907, 0.1511299], "includesElement__electronegativity_pauling": [2.05, 0.82], "includesElement__electronegativity_sanderson": [0.7762722, 0.1218383], "includesElement__en_ghosh": [0.1918774, 0.0981896], "includesElement__en_pauling": [2.05, 0.82], "includesElement__evaporation_heat": [195.2, 2.33], "includesElement__fusion_heat": [20.08, 102.5], "includesElement__glawe_number": [91, 10], "includesElement__group_id": [15, 1], "includesElement__heat_of_formation": [264.4, 89.0], "includesElement__is_radioactive": [false], "includesElement__lattice_constant": [4.51, 5.23], "includesElement__mendeleev_number": [96, 3], "includesElement__molar_heat_capacity": [25.23, 29.6], "includesElement__period": [5, 4], "includesElement__pettifor_number": [88, 10], "includesElement__specific_heat_capacity": [0.207, 0.757], "includesElement__vdw_radius": [206.0, 275.0], "includesElement__vdw_radius_alvarez": [247.0, 273.0], "includesElement__vdw_radius_mm3": [252.0, 309.0], "includesElement__vdw_radius_uff": [442.0, 381.2], "includesElement__abundance_sea": [0.00024, 399.0], "includesElement__atomic_weight_uncertainty": [0.001, 0.0001], "includesElement__c6_gb": [504.0, 3910.0], "includesElement__covalent_radius_bragg": [140.0, 207.0], "includesElement__electronegativity_allen": [11.74, 4.34], "includesElement__en_allen": [11.74, 4.34], "includesElement__metallic_radius": [139.0, 203.0], "includesElement__metallic_radius_c12": [166.0, 235.0], "includesElement__thermal_conductivity": [24.43, 79.0], "includesElement__vdw_radius_batsanov": [220.0, 280.0], "includesElement__c6": [492.0, 3923.0], "includesElement__vdw_radius_dreiding": [435.0], "includesElement__vdw_radius_truhlar": [206.0], "includesElement__discovery_year": [1807], "includesElement__vdw_radius_bondi": [275.0], "formula": ["K3Sb1"], "spacegroup": ["225"], "thermalConductivity": [0.640055], "icsd": ["246648"], "band_gap": [0.6773], "density": [2.626915], "density_atomic": [37.77816], "deprecated": [false], "efermi": [1.199134], "energy_above_hull": [0.01518572], "energy_per_atom": [-11.47337], "formation_energy_per_atom": [-0.5330958], "homogeneous_poisson": [0.285], "is_gap_direct": [true], "is_magnetic": [false], "is_metal": [false], "is_stable": [false], "nelements": [2], "nsites": [4], "num_magnetic_sites": [0], "num_unique_magnetic_sites": [0], "theoretical": [false], "total_magnetization": [0.0], "total_magnetization_normalized_formula_units": [0.0], "total_magnetization_normalized_vol": [0.0], "uncorrected_energy_per_atom": [-11.47337], "universal_anisotropy": [5.611], "volume": [151.1126], "cbm": [1.8534], "vbm": [1.1761]}