{"includesElement": ["", "Al", "Y"], "includesElement___series_id": [7, 8], "includesElement__abundance_crust": [82300.0, 33.0], "includesElement__atomic_number": [13, 39], "includesElement__atomic_radius": [125.0, 180.0], "includesElement__atomic_radius_rahm": [239.0, 274.0], "includesElement__atomic_volume": [10.0, 19.8], "includesElement__atomic_weight": [26.98154, 88.90584], "includesElement__covalent_radius_cordero": [121.0, 190.0], "includesElement__covalent_radius_pyykko": [126.0, 163.0], "includesElement__covalent_radius_pyykko_double": [113.0, 130.0], "includesElement__covalent_radius_pyykko_triple": [111.0, 124.0], "includesElement__density": [2.7, 4.47], "includesElement__dipole_polarizability": [57.8, 162.0], "includesElement__dipole_polarizability_unc": [1.0, 12.0], "includesElement__discovery_year": [1825, 1789], "includesElement__electron_affinity": [0.43283, 0.307], "includesElement__electronegativity_allred-rochow": [0.0002204586, 0.0001129135], "includesElement__electronegativity_cottrell-sutton": [0.1666667, 0.1356647], "includesElement__electronegativity_ghosh": [0.150078, 0.1216986], "includesElement__electronegativity_gordy": [0.02777778, 0.01840491], "includesElement__electronegativity_mulliken": [3.209299, 3.26213], "includesElement__electronegativity_nagle": [0.3730192, 0.2645668], "includesElement__electronegativity_pauling": [1.61, 1.22], "includesElement__electronegativity_sanderson": [0.2360927, 0.3923941], "includesElement__en_ghosh": [0.150078, 0.1216986], "includesElement__en_pauling": [1.61, 1.22], "includesElement__evaporation_heat": [284.1, 367.0], "includesElement__fusion_heat": [10.75, 11.5], "includesElement__glawe_number": [78, 21], "includesElement__group_id": [13, 3], "includesElement__heat_of_formation": [330.9, 424.7], "includesElement__is_radioactive": [false], "includesElement__lattice_constant": [4.05, 3.65], "includesElement__mendeleev_number": [82, 12], "includesElement__molar_heat_capacity": [24.2, 26.53], "includesElement__period": [3, 5], "includesElement__pettifor_number": [80, 19], "includesElement__specific_heat_capacity": [0.897, 0.298], "includesElement__vdw_radius": [184.0, 232.0], "includesElement__vdw_radius_alvarez": [225.0, 275.0], "includesElement__vdw_radius_mm3": [236.0, 271.0], "includesElement__vdw_radius_uff": [449.9, 334.5], "includesElement__abundance_sea": [0.002, 1.3e-05], "includesElement__atomic_weight_uncertainty": [7e-07, 2e-05], "includesElement__c6_gb": [520.0, 2600.0], "includesElement__covalent_radius_bragg": [135.0], "includesElement__electronegativity_allen": [9.539, 6.631], "includesElement__en_allen": [9.539, 6.631], "includesElement__metallic_radius": [125.0, 162.0], "includesElement__metallic_radius_c12": [143.0, 180.0], "includesElement__thermal_conductivity": [237.0], "includesElement__vdw_radius_batsanov": [210.0, 240.0], "includesElement__c6": [528.0], "includesElement__is_monoisotopic": [true], "includesElement__vdw_radius_dreiding": [439.0], "includesElement__vdw_radius_truhlar": [184.0], "includesElement__gas_basicity": [945.9], "includesElement__proton_affinity": [967.0], "formula": ["Al2Y2"], "spacegroup": ["63"], "thermalConductivity": [10.1234], "icsd": ["247101"], "band_gap": [0.0], "density": [3.857604], "density_atomic": [24.94236], "deprecated": [false], "efermi": [4.338708], "energy_above_hull": [0.0], "energy_per_atom": [-13.99128], "formation_energy_per_atom": [-0.4684286], "homogeneous_poisson": [0.272], "is_gap_direct": [false], "is_magnetic": [false], "is_metal": [true], "is_stable": [true], "nelements": [2], "nsites": [4], "num_magnetic_sites": [0], "num_unique_magnetic_sites": [0], "theoretical": [false], "total_magnetization": [0.6984216], "total_magnetization_normalized_formula_units": [0.3492108], "total_magnetization_normalized_vol": [0.007000355], "uncorrected_energy_per_atom": [-13.99128], "universal_anisotropy": [10.05], "volume": [99.76945], "equilibrium_reaction_energy_per_atom": [-0.008843]}