{"includesElement": ["", "F", "V"], "includesElement___series_id": [6, 8], "includesElement__abundance_crust": [585.0, 120.0], "includesElement__atomic_number": [9, 23], "includesElement__atomic_radius": [50.0, 135.0], "includesElement__atomic_radius_rahm": [163.0, 252.0], "includesElement__atomic_volume": [17.1, 8.35], "includesElement__atomic_weight": [18.9984, 50.9415], "includesElement__covalent_radius_cordero": [57.0, 153.0], "includesElement__covalent_radius_pyykko": [64.0, 134.0], "includesElement__covalent_radius_pyykko_double": [59.0, 112.0], "includesElement__covalent_radius_pyykko_triple": [53.0, 106.0], "includesElement__density": [0.001553, 6.0], "includesElement__dipole_polarizability": [3.74, 87.0], "includesElement__dipole_polarizability_unc": [0.08, 10.0], "includesElement__discovery_year": [1886, 1830], "includesElement__electron_affinity": [3.40119, 0.525], "includesElement__electronegativity_allred-rochow": [0.001269531, 0.0001837826], "includesElement__electronegativity_cottrell-sutton": [0.2850439, 0.1569295], "includesElement__electronegativity_ghosh": [0.344443, 0.1273344], "includesElement__electronegativity_gordy": [0.08125, 0.02462687], "includesElement__electronegativity_mulliken": [10.412, 3.635594], "includesElement__electronegativity_nagle": [1.232373, 0.3859078], "includesElement__electronegativity_pauling": [3.98, 1.63], "includesElement__electronegativity_sanderson": [1.017681, 0.4388898], "includesElement__en_ghosh": [0.344443, 0.1273344], "includesElement__en_pauling": [3.98, 1.63], "includesElement__evaporation_heat": [6.54, 460.0], "includesElement__fusion_heat": [0.51, 17.5], "includesElement__glawe_number": [102, 54], "includesElement__group_id": [17, 5], "includesElement__heat_of_formation": [79.335, 515.5], "includesElement__is_radioactive": [false], "includesElement__mendeleev_number": [106, 47], "includesElement__molar_heat_capacity": [31.304, 24.89], "includesElement__period": [2, 4], "includesElement__pettifor_number": [102, 54], "includesElement__specific_heat_capacity": [0.824, 0.489], "includesElement__vdw_radius": [147.0, 207.0], "includesElement__vdw_radius_alvarez": [146.0, 242.0], "includesElement__vdw_radius_mm3": [171.0, 229.0], "includesElement__vdw_radius_uff": [336.4, 314.4], "includesElement__abundance_sea": [1.3, 0.0025], "includesElement__atomic_weight_uncertainty": [6e-09, 0.0001], "includesElement__c6_gb": [10.2, 955.0], "includesElement__covalent_radius_bragg": [67.0], "includesElement__electronegativity_allen": [24.8, 9.063], "includesElement__en_allen": [24.8, 9.063], "includesElement__thermal_conductivity": [0.028, 30.7], "includesElement__vdw_radius_batsanov": [150.0, 205.0], "includesElement__c6": [9.52, 832.0], "includesElement__is_monoisotopic": [true], "includesElement__vdw_radius_dreiding": [347.2], "includesElement__gas_basicity": [315.1, 836.8], "includesElement__proton_affinity": [340.1, 859.4], "includesElement__vdw_radius_bondi": [147.0], "includesElement__vdw_radius_rt": [146.0], "includesElement__lattice_constant": [3.02], "includesElement__metallic_radius": [122.0], "includesElement__metallic_radius_c12": [134.0], "formula": ["F4V2"], "spacegroup": ["136"], "thermalConductivity": [3.15852], "icsd": ["201245"], "band_gap": [0.0], "density": [3.970078], "density_atomic": [12.39989], "deprecated": [false], "efermi": [4.049489], "energy_above_hull": [0.0], "energy_per_atom": [-9.797189], "formation_energy_per_atom": [-3.018228], "is_gap_direct": [false], "is_magnetic": [true], "is_metal": [true], "is_stable": [true], "nelements": [2], "nsites": [6], "num_magnetic_sites": [2], "num_unique_magnetic_sites": [1], "theoretical": [false], "total_magnetization": [6.0], "total_magnetization_normalized_formula_units": [3.0], "total_magnetization_normalized_vol": [0.08064591], "uncorrected_energy_per_atom": [-9.797189], "volume": [74.39932], "e_electronic": [2.478373], "e_ionic": [1.978526], "e_total": [4.456899], "equilibrium_reaction_energy_per_atom": [-0.1379538], "n": [1.574285]}