{"includesElement": ["", "W", "B"], "includesElement___series_id": [8, 5], "includesElement__abundance_crust": [1.25, 10.0], "includesElement__atomic_number": [74, 5], "includesElement__atomic_radius": [135.0, 85.0], "includesElement__atomic_radius_rahm": [253.0, 205.0], "includesElement__atomic_volume": [9.53, 4.6], "includesElement__atomic_weight": [183.84, 10.81], "includesElement__covalent_radius_cordero": [162.0, 84.0], "includesElement__covalent_radius_pyykko": [137.0, 85.0], "includesElement__covalent_radius_pyykko_double": [120.0, 78.0], "includesElement__covalent_radius_pyykko_triple": [115.0, 73.0], "includesElement__density": [19.3, 2.34], "includesElement__dipole_polarizability": [68.0, 20.5], "includesElement__dipole_polarizability_unc": [15.0, 0.1], "includesElement__discovery_year": [1783, 1808], "includesElement__electron_affinity": [0.81626, 0.279723], "includesElement__electronegativity_allred-rochow": [0.0001838137, 0.0003598616], "includesElement__electronegativity_cottrell-sutton": [0.1586899, 0.1748949], "includesElement__electronegativity_ghosh": [0.2390504, 0.184886], "includesElement__electronegativity_gordy": [0.02518248, 0.03058824], "includesElement__electronegativity_mulliken": [4.340145, 4.288871], "includesElement__electronegativity_nagle": [0.4451921, 0.5269739], "includesElement__electronegativity_pauling": [1.7, 2.04], "includesElement__electronegativity_sanderson": [1.019283, 0.2546274], "includesElement__en_ghosh": [0.2390504, 0.184886], "includesElement__en_pauling": [1.7, 2.04], "includesElement__evaporation_heat": [824.0, 504.5], "includesElement__fusion_heat": [35.0, 23.6], "includesElement__glawe_number": [57, 86], "includesElement__group_id": [6, 13], "includesElement__heat_of_formation": [851.0, 565.0], "includesElement__is_radioactive": [false], "includesElement__lattice_constant": [3.16, 8.73], "includesElement__mendeleev_number": [53, 81], "includesElement__molar_heat_capacity": [24.27, 11.087], "includesElement__period": [6, 2], "includesElement__pettifor_number": [56, 86], "includesElement__specific_heat_capacity": [0.132, 1.026], "includesElement__vdw_radius": [218.0, 192.0], "includesElement__vdw_radius_alvarez": [257.0, 191.0], "includesElement__vdw_radius_mm3": [239.0, 215.0], "includesElement__vdw_radius_uff": [309.6, 408.3], "includesElement__abundance_sea": [0.0001, 4.44], "includesElement__atomic_weight_uncertainty": [0.01], "includesElement__c6_gb": [757.0, 99.2], "includesElement__electronegativity_allen": [8.67, 12.13], "includesElement__en_allen": [8.67, 12.13], "includesElement__metallic_radius": [130.0, 80.0], "includesElement__metallic_radius_c12": [139.0, 98.0], "includesElement__thermal_conductivity": [173.0, 27.4], "includesElement__vdw_radius_batsanov": [210.0, 180.0], "includesElement__c6": [99.5], "includesElement__vdw_radius_dreiding": [402.0], "includesElement__vdw_radius_truhlar": [192.0], "formula": ["B8W4"], "spacegroup": ["194"], "thermalConductivity": [22.5317, 22.5661], "icsd": ["23716", "615700"], "band_gap": [0.0], "density": [12.4196], "density_atomic": [9.156969], "deprecated": [false], "efermi": [8.404881], "energy_above_hull": [0.0], "energy_per_atom": [-22.34091], "formation_energy_per_atom": [-0.3207389], "homogeneous_poisson": [0.232], "is_gap_direct": [false], "is_magnetic": [false], "is_metal": [true], "is_stable": [true], "nelements": [2], "nsites": [12], "num_magnetic_sites": [0], "num_unique_magnetic_sites": [0], "theoretical": [false], "total_magnetization": [0.0], "total_magnetization_normalized_formula_units": [0.0], "total_magnetization_normalized_vol": [0.0], "uncorrected_energy_per_atom": [-22.34091], "universal_anisotropy": [0.083], "volume": [109.8836], "equilibrium_reaction_energy_per_atom": [-0.08093211]}