{"includesElement": ["", "Sr", "Ir"], "includesElement___series_id": [4, 8], "includesElement__abundance_crust": [370.0, 0.001], "includesElement__atomic_number": [38, 77], "includesElement__atomic_radius": [200.0, 135.0], "includesElement__atomic_radius_rahm": [279.0, 240.0], "includesElement__atomic_volume": [33.7, 8.54], "includesElement__atomic_weight": [87.62, 192.217], "includesElement__covalent_radius_cordero": [195.0, 141.0], "includesElement__covalent_radius_pyykko": [185.0, 122.0], "includesElement__covalent_radius_pyykko_double": [157.0, 115.0], "includesElement__covalent_radius_pyykko_triple": [139.0, 107.0], "includesElement__density": [2.64, 22.5622], "includesElement__dipole_polarizability": [197.2, 54.0], "includesElement__dipole_polarizability_unc": [0.2, 7.0], "includesElement__discovery_year": [1790, 1804], "includesElement__electron_affinity": [0.048, 1.5638], "includesElement__electronegativity_allred-rochow": [8.327246e-05, 0.0002620263], "includesElement__electronegativity_cottrell-sutton": [0.1241185, 0.1787938], "includesElement__electronegativity_ghosh": [0.1185082, 0.25106], "includesElement__electronegativity_gordy": [0.01540541, 0.03196721], "includesElement__electronegativity_mulliken": [2.871434, 5.26541], "includesElement__electronegativity_nagle": [0.2164584, 0.5503212], "includesElement__electronegativity_pauling": [0.95, 2.2], "includesElement__electronegativity_sanderson": [0.2631786, 1.475998], "includesElement__en_ghosh": [0.1185082, 0.25106], "includesElement__en_pauling": [0.95, 2.2], "includesElement__evaporation_heat": [144.0, 604.0], "includesElement__fusion_heat": [9.2, 27.61], "includesElement__glawe_number": [15, 62], "includesElement__group_id": [2, 9], "includesElement__heat_of_formation": [164.0, 669.0], "includesElement__is_radioactive": [false], "includesElement__lattice_constant": [6.08, 3.84], "includesElement__mendeleev_number": [8, 65], "includesElement__molar_heat_capacity": [26.79, 25.1], "includesElement__period": [5, 6], "includesElement__pettifor_number": [15, 65], "includesElement__specific_heat_capacity": [0.306, 0.131], "includesElement__vdw_radius": [249.0, 213.0], "includesElement__vdw_radius_alvarez": [284.0, 241.0], "includesElement__vdw_radius_mm3": [300.0, 236.0], "includesElement__vdw_radius_uff": [364.1, 284.0], "includesElement__abundance_sea": [7.9], "includesElement__atomic_weight_uncertainty": [0.01, 0.003], "includesElement__c6_gb": [3230.0, 522.0], "includesElement__covalent_radius_bragg": [195.0], "includesElement__electronegativity_allen": [5.695, 9.96], "includesElement__en_allen": [5.695, 9.96], "includesElement__metallic_radius": [191.0, 127.0], "includesElement__metallic_radius_c12": [215.0, 136.0], "includesElement__vdw_radius_batsanov": [255.0, 200.0], "includesElement__c6": [3175.0], "includesElement__vdw_radius_truhlar": [249.0], "includesElement__thermal_conductivity": [147.0], "formula": ["Ir4Sr2"], "spacegroup": ["227"], "thermalConductivity": [3.76234], "icsd": ["104564"], "band_gap": [0.0], "density": [13.67708], "density_atomic": [19.10409], "deprecated": [false], "efermi": [5.859562], "energy_above_hull": [0.0], "energy_per_atom": [-40.28486], "formation_energy_per_atom": [-0.3300712], "homogeneous_poisson": [0.344], "is_gap_direct": [false], "is_magnetic": [false], "is_metal": [true], "is_stable": [true], "nelements": [2], "nsites": [6], "num_magnetic_sites": [0], "num_unique_magnetic_sites": [0], "theoretical": [false], "total_magnetization": [0.002899], "total_magnetization_normalized_formula_units": [0.0014495], "total_magnetization_normalized_vol": [2.529127e-05], "uncorrected_energy_per_atom": [-40.28486], "universal_anisotropy": [0.099], "volume": [114.6245], "equilibrium_reaction_energy_per_atom": [-0.3300712]}