{"includesElement": ["", "Mg", "Ge"], "includesElement___series_id": [4, 5], "includesElement__abundance_crust": [23300.0, 1.5], "includesElement__atomic_number": [12, 32], "includesElement__atomic_radius": [150.0, 125.0], "includesElement__atomic_radius_rahm": [240.0, 234.0], "includesElement__atomic_volume": [14.0, 13.6], "includesElement__atomic_weight": [24.305, 72.63], "includesElement__covalent_radius_cordero": [141.0, 120.0], "includesElement__covalent_radius_pyykko": [139.0, 121.0], "includesElement__covalent_radius_pyykko_double": [132.0, 111.0], "includesElement__covalent_radius_pyykko_triple": [127.0, 114.0], "includesElement__density": [1.74, 5.3234], "includesElement__dipole_polarizability": [71.2, 40.0], "includesElement__dipole_polarizability_unc": [0.4, 1.0], "includesElement__discovery_year": [1808, 1886], "includesElement__electronegativity_allred-rochow": [0.0001475079, 0.0003859026], "includesElement__electronegativity_cottrell-sutton": [0.1431908, 0.2160884], "includesElement__electronegativity_ghosh": [0.121644, 0.1895892], "includesElement__electronegativity_gordy": [0.0205036, 0.04669421], "includesElement__electronegativity_mulliken": [3.823117, 4.566073], "includesElement__electronegativity_nagle": [0.3039835, 0.4641589], "includesElement__electronegativity_pauling": [1.31, 2.01], "includesElement__electronegativity_sanderson": [0.1524211, 0.8001471], "includesElement__en_ghosh": [0.121644, 0.1895892], "includesElement__en_pauling": [1.31, 2.01], "includesElement__evaporation_heat": [131.8, 328.0], "includesElement__fusion_heat": [9.2, 36.8], "includesElement__glawe_number": [73, 84], "includesElement__group_id": [2, 14], "includesElement__heat_of_formation": [147.1, 372.0], "includesElement__is_radioactive": [false], "includesElement__lattice_constant": [3.21, 5.66], "includesElement__mendeleev_number": [76, 89], "includesElement__molar_heat_capacity": [24.869, 23.222], "includesElement__period": [3, 4], "includesElement__pettifor_number": [73, 84], "includesElement__specific_heat_capacity": [1.023, 0.32], "includesElement__vdw_radius": [173.0, 211.0], "includesElement__vdw_radius_alvarez": [251.0, 229.0], "includesElement__vdw_radius_mm3": [243.0, 244.0], "includesElement__vdw_radius_uff": [302.1, 428.0], "includesElement__abundance_sea": [1290.0, 5e-05], "includesElement__c6_gb": [629.0, 365.0], "includesElement__covalent_radius_bragg": [142.0], "includesElement__electronegativity_allen": [7.646, 11.8], "includesElement__en_allen": [7.646, 11.8], "includesElement__metallic_radius": [136.0, 124.0], "includesElement__metallic_radius_c12": [160.0, 144.0], "includesElement__thermal_conductivity": [156.0, 60.2], "includesElement__vdw_radius_batsanov": [220.0, 210.0], "includesElement__c6": [626.0, 354.0], "includesElement__gas_basicity": [797.3], "includesElement__proton_affinity": [819.6], "includesElement__vdw_radius_bondi": [173.0], "includesElement__electron_affinity": [1.232712], "includesElement__atomic_weight_uncertainty": [0.008], "includesElement__vdw_radius_dreiding": [427.0], "includesElement__vdw_radius_truhlar": [211.0], "formula": ["Ge2Mg4"], "spacegroup": ["227"], "thermalConductivity": [3.34629], "icsd": ["108514"], "band_gap": [0.0], "density": [3.083015], "density_atomic": [21.76877], "deprecated": [false], "efermi": [3.577727], "energy_above_hull": [0.4831722], "energy_per_atom": [-7.264253], "formation_energy_per_atom": [0.1392754], "homogeneous_poisson": [0.371], "is_gap_direct": [false], "is_magnetic": [false], "is_metal": [true], "is_stable": [false], "nelements": [2], "nsites": [6], "num_magnetic_sites": [0], "num_unique_magnetic_sites": [0], "theoretical": [false], "total_magnetization": [2.91e-05], "total_magnetization_normalized_formula_units": [1.455e-05], "total_magnetization_normalized_vol": [2.227962e-07], "uncorrected_energy_per_atom": [-2.393601], "universal_anisotropy": [3.843], "volume": [130.6126], "cbm": [3.5514], "vbm": [3.581]}