{"includesElement": ["", "Ba", "Sb"], "includesElement___series_id": [4, 5], "includesElement__abundance_crust": [425.0, 0.2], "includesElement__atomic_number": [56, 51], "includesElement__atomic_radius": [215.0, 145.0], "includesElement__atomic_radius_rahm": [293.0, 246.0], "includesElement__atomic_volume": [39.0, 18.4], "includesElement__atomic_weight": [137.327, 121.76], "includesElement__covalent_radius_cordero": [215.0, 139.0], "includesElement__covalent_radius_pyykko": [196.0, 140.0], "includesElement__covalent_radius_pyykko_double": [161.0, 133.0], "includesElement__covalent_radius_pyykko_triple": [149.0, 127.0], "includesElement__density": [3.62, 6.68], "includesElement__dipole_polarizability": [272.0, 43.0], "includesElement__dipole_polarizability_unc": [10.0, 2.0], "includesElement__discovery_year": [1808], "includesElement__electron_affinity": [0.14462, 1.046], "includesElement__electronegativity_allred-rochow": [7.418784e-05, 0.0003214286], "includesElement__electronegativity_cottrell-sutton": [0.1205853, 0.212132], "includesElement__electronegativity_ghosh": [0.1586786, 0.1918774], "includesElement__electronegativity_gordy": [0.01454082, 0.045], "includesElement__electronegativity_mulliken": [2.678142, 4.827195], "includesElement__electronegativity_nagle": [0.1944556, 0.4880907], "includesElement__electronegativity_pauling": [0.89, 2.05], "includesElement__electronegativity_sanderson": [0.3032951, 0.7762722], "includesElement__en_ghosh": [0.1586786, 0.1918774], "includesElement__en_pauling": [0.89, 2.05], "includesElement__evaporation_heat": [142.0, 195.2], "includesElement__fusion_heat": [7.66, 20.08], "includesElement__glawe_number": [14, 91], "includesElement__group_id": [2, 15], "includesElement__heat_of_formation": [179.1, 264.4], "includesElement__is_radioactive": [false], "includesElement__lattice_constant": [5.02, 4.51], "includesElement__mendeleev_number": [9, 96], "includesElement__molar_heat_capacity": [28.07, 25.23], "includesElement__period": [6, 5], "includesElement__pettifor_number": [14, 88], "includesElement__specific_heat_capacity": [0.204, 0.207], "includesElement__vdw_radius": [268.0, 206.0], "includesElement__vdw_radius_alvarez": [303.0, 247.0], "includesElement__vdw_radius_mm3": [307.0, 252.0], "includesElement__vdw_radius_uff": [370.3, 442.0], "includesElement__abundance_sea": [0.013, 0.00024], "includesElement__atomic_weight_uncertainty": [0.007, 0.001], "includesElement__c6_gb": [5540.0, 504.0], "includesElement__covalent_radius_bragg": [210.0, 140.0], "includesElement__electronegativity_allen": [5.211, 11.74], "includesElement__en_allen": [5.211, 11.74], "includesElement__metallic_radius": [198.0, 139.0], "includesElement__metallic_radius_c12": [222.0, 166.0], "includesElement__vdw_radius_batsanov": [270.0, 220.0], "includesElement__vdw_radius_truhlar": [268.0, 206.0], "includesElement__thermal_conductivity": [24.43], "includesElement__c6": [492.0], "includesElement__vdw_radius_dreiding": [435.0], "formula": ["Ba4Sb2"], "spacegroup": ["139"], "thermalConductivity": [1.98574], "icsd": ["41837"], "band_gap": [0.0], "density": [4.970383], "density_atomic": [44.14555], "deprecated": [false], "efermi": [3.456571], "energy_above_hull": [0.02583599], "energy_per_atom": [-3.58], "formation_energy_per_atom": [-0.9243493], "is_gap_direct": [false], "is_magnetic": [false], "is_metal": [true], "is_stable": [false], "nelements": [2], "nsites": [6], "num_magnetic_sites": [0], "num_unique_magnetic_sites": [0], "theoretical": [false], "total_magnetization": [0.0020102], "total_magnetization_normalized_formula_units": [0.0010051], "total_magnetization_normalized_vol": [7.589289e-06], "uncorrected_energy_per_atom": [-27.24482], "volume": [264.8733]}