{"includesElement": ["", "Hf", "C"], "includesElement___series_id": [8, 1], "includesElement__abundance_crust": [3.0, 200.0], "includesElement__atomic_number": [72, 6], "includesElement__atomic_radius": [155.0, 70.0], "includesElement__atomic_radius_rahm": [264.0, 190.0], "includesElement__atomic_volume": [13.6, 5.3], "includesElement__atomic_weight": [178.49, 12.011], "includesElement__covalent_radius_cordero": [175.0, 73.0], "includesElement__covalent_radius_pyykko": [152.0, 75.0], "includesElement__covalent_radius_pyykko_double": [128.0, 67.0], "includesElement__covalent_radius_pyykko_triple": [122.0, 60.0], "includesElement__density": [13.3, 2.2], "includesElement__dipole_polarizability": [103.0, 11.3], "includesElement__dipole_polarizability_unc": [6.0, 0.2], "includesElement__discovery_year": [1923], "includesElement__electron_affinity": [0.014, 1.262119], "includesElement__electronegativity_allred-rochow": [0.00013634, 0.0005777778], "includesElement__electronegativity_cottrell-sutton": [0.1439572, 0.2081666], "includesElement__electronegativity_ghosh": [0.229987, 0.224776], "includesElement__electronegativity_gordy": [0.02072368, 0.04333333], "includesElement__electronegativity_mulliken": [3.419535, 6.261208], "includesElement__electronegativity_nagle": [0.3386421, 0.7073926], "includesElement__electronegativity_pauling": [1.3, 2.55], "includesElement__electronegativity_sanderson": [0.7352125, 0.427525], "includesElement__en_ghosh": [0.229987, 0.224776], "includesElement__en_pauling": [1.3, 2.55], "includesElement__evaporation_heat": [575.0], "includesElement__fusion_heat": [25.1], "includesElement__glawe_number": [50, 87], "includesElement__group_id": [4, 14], "includesElement__heat_of_formation": [618.4, 716.87], "includesElement__is_radioactive": [false], "includesElement__lattice_constant": [3.2, 3.57], "includesElement__mendeleev_number": [45, 87], "includesElement__molar_heat_capacity": [25.73, 8.517], "includesElement__period": [6, 2], "includesElement__pettifor_number": [50, 95], "includesElement__specific_heat_capacity": [0.144, 0.709], "includesElement__vdw_radius": [223.0, 170.0], "includesElement__vdw_radius_alvarez": [263.0, 177.0], "includesElement__vdw_radius_mm3": [253.0, 204.0], "includesElement__vdw_radius_uff": [314.1, 385.1], "includesElement__abundance_sea": [7e-06, 28.0], "includesElement__atomic_weight_uncertainty": [0.02], "includesElement__c6_gb": [1040.0, 47.9], "includesElement__electronegativity_allen": [6.83, 15.05], "includesElement__en_allen": [6.83, 15.05], "includesElement__metallic_radius": [144.0], "includesElement__metallic_radius_c12": [159.0, 86.0], "includesElement__thermal_conductivity": [23.0, 1.59], "includesElement__vdw_radius_batsanov": [225.0, 170.0], "includesElement__covalent_radius_bragg": [77.0], "includesElement__c6": [46.6], "includesElement__vdw_radius_dreiding": [389.83], "includesElement__vdw_radius_bondi": [170.0], "includesElement__vdw_radius_rt": [177.0], "formula": ["C1Hf1"], "spacegroup": ["225"], "thermalConductivity": [63.6972], "icsd": ["108134"], "band_gap": [0.0], "density": [12.71334], "density_atomic": [12.44103], "deprecated": [false], "efermi": [6.376273], "energy_above_hull": [0.0], "energy_per_atom": [-10.5318], "formation_energy_per_atom": [-0.9388752], "homogeneous_poisson": [0.203], "is_gap_direct": [false], "is_magnetic": [false], "is_metal": [true], "is_stable": [true], "nelements": [2], "nsites": [2], "num_magnetic_sites": [0], "num_unique_magnetic_sites": [0], "theoretical": [false], "total_magnetization": [2e-06], "total_magnetization_normalized_formula_units": [2e-06], "total_magnetization_normalized_vol": [8.037923e-08], "uncorrected_energy_per_atom": [-28.67222], "universal_anisotropy": [0.033], "volume": [24.88205], "equilibrium_reaction_energy_per_atom": [-0.9388752]}