{"includesElement": ["", "Th", "C"], "includesElement___series_id": [10, 1], "includesElement__abundance_crust": [9.6, 200.0], "includesElement__atomic_number": [90, 6], "includesElement__atomic_radius": [180.0, 70.0], "includesElement__atomic_radius_rahm": [288.0, 190.0], "includesElement__atomic_volume": [19.8, 5.3], "includesElement__atomic_weight": [232.0377, 12.011], "includesElement__covalent_radius_cordero": [206.0, 73.0], "includesElement__covalent_radius_pyykko": [175.0, 75.0], "includesElement__covalent_radius_pyykko_double": [143.0, 67.0], "includesElement__covalent_radius_pyykko_triple": [136.0, 60.0], "includesElement__density": [11.7, 2.2], "includesElement__dipole_polarizability": [217.0, 11.3], "includesElement__dipole_polarizability_unc": [54.0, 0.2], "includesElement__discovery_year": [1828], "includesElement__electronegativity_allred-rochow": [0.0001028571, 0.0005777778], "includesElement__electronegativity_cottrell-sutton": [0.1341641, 0.2081666], "includesElement__electronegativity_ghosh": [0.10277, 0.224776], "includesElement__electronegativity_gordy": [0.018, 0.04333333], "includesElement__electronegativity_mulliken": [3.15335, 6.261208], "includesElement__electronegativity_nagle": [0.2641598, 0.7073926], "includesElement__electronegativity_pauling": [1.3, 2.55], "includesElement__electronegativity_sanderson": [0.5557019, 0.427525], "includesElement__en_ghosh": [0.10277, 0.224776], "includesElement__en_pauling": [1.3, 2.55], "includesElement__evaporation_heat": [513.7], "includesElement__fusion_heat": [16.11], "includesElement__glawe_number": [34, 87], "includesElement__heat_of_formation": [602.0, 716.87], "includesElement__is_radioactive": [true, false], "includesElement__lattice_constant": [5.08, 3.57], "includesElement__mendeleev_number": [16, 87], "includesElement__molar_heat_capacity": [27.32, 8.517], "includesElement__period": [7, 2], "includesElement__pettifor_number": [47, 95], "includesElement__specific_heat_capacity": [0.118, 0.709], "includesElement__vdw_radius": [245.0, 170.0], "includesElement__vdw_radius_alvarez": [293.0, 177.0], "includesElement__vdw_radius_mm3": [274.0, 204.0], "includesElement__vdw_radius_uff": [339.6, 385.1], "includesElement__abundance_sea": [1e-06, 28.0], "includesElement__atomic_weight_uncertainty": [0.0004], "includesElement__vdw_radius_batsanov": [240.0, 170.0], "includesElement__electron_affinity": [1.262119], "includesElement__group_id": [14], "includesElement__c6_gb": [47.9], "includesElement__covalent_radius_bragg": [77.0], "includesElement__electronegativity_allen": [15.05], "includesElement__en_allen": [15.05], "includesElement__metallic_radius_c12": [86.0], "includesElement__thermal_conductivity": [1.59], "includesElement__c6": [46.6], "includesElement__vdw_radius_dreiding": [389.83], "includesElement__vdw_radius_bondi": [170.0], "includesElement__vdw_radius_rt": [177.0], "formula": ["C1Th1"], "spacegroup": ["225"], "thermalConductivity": [29.595], "icsd": ["260883"], "band_gap": [0.0], "density": [10.50675], "density_atomic": [19.28534], "deprecated": [false], "efermi": [6.954331], "energy_above_hull": [0.0], "energy_per_atom": [-8.596662], "formation_energy_per_atom": [-0.2753998], "homogeneous_poisson": [0.205], "is_gap_direct": [false], "is_magnetic": [false], "is_metal": [true], "is_stable": [true], "nelements": [2], "nsites": [2], "num_magnetic_sites": [0], "num_unique_magnetic_sites": [0], "theoretical": [false], "total_magnetization": [8e-07], "total_magnetization_normalized_formula_units": [8e-07], "total_magnetization_normalized_vol": [2.074115e-08], "uncorrected_energy_per_atom": [-42.14199], "universal_anisotropy": [0.062], "volume": [38.57067], "equilibrium_reaction_energy_per_atom": [-0.01029433]}