{"includesElement": ["", "Y", "B"], "includesElement___series_id": [8, 5], "includesElement__abundance_crust": [33.0, 10.0], "includesElement__atomic_number": [39, 5], "includesElement__atomic_radius": [180.0, 85.0], "includesElement__atomic_radius_rahm": [274.0, 205.0], "includesElement__atomic_volume": [19.8, 4.6], "includesElement__atomic_weight": [88.90584, 10.81], "includesElement__covalent_radius_cordero": [190.0, 84.0], "includesElement__covalent_radius_pyykko": [163.0, 85.0], "includesElement__covalent_radius_pyykko_double": [130.0, 78.0], "includesElement__covalent_radius_pyykko_triple": [124.0, 73.0], "includesElement__density": [4.47, 2.34], "includesElement__dipole_polarizability": [162.0, 20.5], "includesElement__dipole_polarizability_unc": [12.0, 0.1], "includesElement__discovery_year": [1789, 1808], "includesElement__electron_affinity": [0.307, 0.279723], "includesElement__electronegativity_allred-rochow": [0.0001129135, 0.0003598616], "includesElement__electronegativity_cottrell-sutton": [0.1356647, 0.1748949], "includesElement__electronegativity_ghosh": [0.1216986, 0.184886], "includesElement__electronegativity_gordy": [0.01840491, 0.03058824], "includesElement__electronegativity_mulliken": [3.26213, 4.288871], "includesElement__electronegativity_nagle": [0.2645668, 0.5269739], "includesElement__electronegativity_pauling": [1.22, 2.04], "includesElement__electronegativity_sanderson": [0.3923941, 0.2546274], "includesElement__en_ghosh": [0.1216986, 0.184886], "includesElement__en_pauling": [1.22, 2.04], "includesElement__evaporation_heat": [367.0, 504.5], "includesElement__fusion_heat": [11.5, 23.6], "includesElement__glawe_number": [21, 86], "includesElement__group_id": [3, 13], "includesElement__heat_of_formation": [424.7, 565.0], "includesElement__is_radioactive": [false], "includesElement__lattice_constant": [3.65, 8.73], "includesElement__mendeleev_number": [12, 81], "includesElement__molar_heat_capacity": [26.53, 11.087], "includesElement__period": [5, 2], "includesElement__pettifor_number": [19, 86], "includesElement__specific_heat_capacity": [0.298, 1.026], "includesElement__vdw_radius": [232.0, 192.0], "includesElement__vdw_radius_alvarez": [275.0, 191.0], "includesElement__vdw_radius_mm3": [271.0, 215.0], "includesElement__vdw_radius_uff": [334.5, 408.3], "includesElement__abundance_sea": [1.3e-05, 4.44], "includesElement__atomic_weight_uncertainty": [2e-05], "includesElement__c6_gb": [2600.0, 99.2], "includesElement__electronegativity_allen": [6.631, 12.13], "includesElement__en_allen": [6.631, 12.13], "includesElement__metallic_radius": [162.0, 80.0], "includesElement__metallic_radius_c12": [180.0, 98.0], "includesElement__vdw_radius_batsanov": [240.0, 180.0], "includesElement__is_monoisotopic": [true], "includesElement__gas_basicity": [945.9], "includesElement__proton_affinity": [967.0], "includesElement__thermal_conductivity": [27.4], "includesElement__c6": [99.5], "includesElement__vdw_radius_dreiding": [402.0], "includesElement__vdw_radius_truhlar": [192.0], "formula": ["B6Y1"], "spacegroup": ["221"], "thermalConductivity": [13.567], "icsd": ["54730"], "band_gap": [0.0], "density": [3.732759], "density_atomic": [9.772327], "deprecated": [false], "efermi": [6.977831], "energy_above_hull": [0.01140389], "energy_per_atom": [-9.661172], "formation_energy_per_atom": [-0.4623538], "homogeneous_poisson": [0.289], "is_gap_direct": [false], "is_magnetic": [false], "is_metal": [true], "is_stable": [false], "nelements": [2], "nsites": [7], "num_magnetic_sites": [0], "num_unique_magnetic_sites": [0], "theoretical": [false], "total_magnetization": [0.0], "total_magnetization_normalized_formula_units": [0.0], "total_magnetization_normalized_vol": [0.0], "uncorrected_energy_per_atom": [-9.661172], "universal_anisotropy": [5.018], "volume": [68.40629]}