{"includesElement": ["", "Cd", "Se"], "includesElement___series_id": [8, 1], "includesElement__abundance_crust": [0.15, 0.05], "includesElement__atomic_number": [48, 34], "includesElement__atomic_radius": [155.0, 115.0], "includesElement__atomic_radius_rahm": [238.0, 224.0], "includesElement__atomic_volume": [13.1, 16.5], "includesElement__atomic_weight": [112.414, 78.971], "includesElement__covalent_radius_cordero": [144.0, 120.0], "includesElement__covalent_radius_pyykko": [136.0, 116.0], "includesElement__covalent_radius_pyykko_double": [144.0, 107.0], "includesElement__density": [8.69, 4.809], "includesElement__dipole_polarizability": [46.0, 28.9], "includesElement__dipole_polarizability_unc": [2.0, 1.0], "includesElement__discovery_year": [1817, 1818], "includesElement__electronegativity_allred-rochow": [0.000235186, 0.0005164982], "includesElement__electronegativity_cottrell-sutton": [0.1788443, 0.2447729], "includesElement__electronegativity_ghosh": [0.1504066, 0.2240328], "includesElement__electronegativity_gordy": [0.03198529, 0.05991379], "includesElement__electronegativity_mulliken": [4.496911, 5.886531], "includesElement__electronegativity_nagle": [0.6389612, 0.592131], "includesElement__electronegativity_pauling": [1.69, 2.55], "includesElement__electronegativity_sanderson": [0.801562, 0.9659121], "includesElement__en_ghosh": [0.1504066, 0.2240328], "includesElement__en_pauling": [1.69, 2.55], "includesElement__evaporation_heat": [59.1, 59.7], "includesElement__fusion_heat": [6.11, 5.23], "includesElement__glawe_number": [75, 95], "includesElement__group_id": [12, 16], "includesElement__heat_of_formation": [111.8, 227.2], "includesElement__is_radioactive": [false], "includesElement__lattice_constant": [2.98, 4.36], "includesElement__mendeleev_number": [78, 101], "includesElement__molar_heat_capacity": [26.02, 25.363], "includesElement__period": [5, 4], "includesElement__pettifor_number": [75, 93], "includesElement__specific_heat_capacity": [0.232, 0.321], "includesElement__vdw_radius": [218.0, 190.0], "includesElement__vdw_radius_alvarez": [249.0, 182.0], "includesElement__vdw_radius_mm3": [250.0, 229.0], "includesElement__vdw_radius_uff": [284.8, 420.5], "includesElement__abundance_sea": [0.00011, 0.0002], "includesElement__atomic_weight_uncertainty": [0.004, 0.008], "includesElement__c6_gb": [405.0, 233.0], "includesElement__covalent_radius_bragg": [160.0, 117.0], "includesElement__electronegativity_allen": [8.995, 14.34], "includesElement__en_allen": [8.995, 14.34], "includesElement__metallic_radius": [138.0, 117.0], "includesElement__metallic_radius_c12": [151.0, 140.0], "includesElement__thermal_conductivity": [96.9, 0.52], "includesElement__vdw_radius_batsanov": [220.0, 190.0], "includesElement__covalent_radius_pyykko_triple": [107.0], "includesElement__electron_affinity": [2.02067], "includesElement__c6": [210.0], "includesElement__vdw_radius_dreiding": [403.0], "includesElement__vdw_radius_bondi": [190.0], "formula": ["Cd2Se2", "CdSe"], "mp_id": ["mp-1070"], "spacegroup": ["186"], "thermalConductivity": [1.25962, 11.66145, 12.33888], "icsd": ["236428"], "band_gap": [0.5724], "density": [5.48014], "density_atomic": [28.9937], "deprecated": [false], "efermi": [0.5297831], "energy_above_hull": [0.0], "energy_per_atom": [-3.065567], "formation_energy_per_atom": [-0.8376062], "homogeneous_poisson": [0.347], "is_gap_direct": [true], "is_magnetic": [false], "is_metal": [false], "is_stable": [true], "nelements": [2], "nsites": [4], "num_magnetic_sites": [0], "num_unique_magnetic_sites": [0], "theoretical": [false], "total_magnetization": [0.0], "total_magnetization_normalized_formula_units": [0.0], "total_magnetization_normalized_vol": [0.0], "uncorrected_energy_per_atom": [-17.95864], "universal_anisotropy": [0.181], "volume": [115.9748], "cbm": [1.0475], "e_electronic": [9.673608], "e_ionic": [2.943546], "e_total": [12.61715], "equilibrium_reaction_energy_per_atom": [-0.3611422], "n": [3.110242], "vbm": [0.4751], "e_ij_max": [0.371399]}