{"includesElement": ["", "Th", "Te"], "includesElement___series_id": [10, 5], "includesElement__abundance_crust": [9.6, 0.001], "includesElement__atomic_number": [90, 52], "includesElement__atomic_radius": [180.0, 140.0], "includesElement__atomic_radius_rahm": [288.0, 242.0], "includesElement__atomic_volume": [19.8, 20.5], "includesElement__atomic_weight": [232.0377, 127.6], "includesElement__covalent_radius_cordero": [206.0, 138.0], "includesElement__covalent_radius_pyykko": [175.0, 136.0], "includesElement__covalent_radius_pyykko_double": [143.0, 128.0], "includesElement__covalent_radius_pyykko_triple": [136.0, 121.0], "includesElement__density": [11.7, 6.232], "includesElement__dipole_polarizability": [217.0, 38.0], "includesElement__dipole_polarizability_unc": [54.0, 4.0], "includesElement__discovery_year": [1828, 1782], "includesElement__electronegativity_allred-rochow": [0.0001028571, 0.0003757569], "includesElement__electronegativity_cottrell-sutton": [0.1341641, 0.2260596], "includesElement__electronegativity_ghosh": [0.10277, 0.2056992], "includesElement__electronegativity_gordy": [0.018, 0.05110294], "includesElement__electronegativity_mulliken": [3.15335, 5.490268], "includesElement__electronegativity_nagle": [0.2641598, 0.5404919], "includesElement__electronegativity_pauling": [1.3, 2.1], "includesElement__electronegativity_sanderson": [0.5557019, 0.8622506], "includesElement__en_ghosh": [0.10277, 0.2056992], "includesElement__en_pauling": [1.3, 2.1], "includesElement__evaporation_heat": [513.7, 49.8], "includesElement__fusion_heat": [16.11, 17.91], "includesElement__glawe_number": [34, 94], "includesElement__heat_of_formation": [602.0, 196.6], "includesElement__is_radioactive": [true, false], "includesElement__lattice_constant": [5.08, 4.45], "includesElement__mendeleev_number": [16, 102], "includesElement__molar_heat_capacity": [27.32, 25.73], "includesElement__period": [7, 5], "includesElement__pettifor_number": [47, 92], "includesElement__specific_heat_capacity": [0.118, 0.202], "includesElement__vdw_radius": [245.0, 206.0], "includesElement__vdw_radius_alvarez": [293.0, 199.0], "includesElement__vdw_radius_mm3": [274.0, 244.0], "includesElement__vdw_radius_uff": [339.6, 447.0], "includesElement__abundance_sea": [1e-06], "includesElement__atomic_weight_uncertainty": [0.0004, 0.03], "includesElement__vdw_radius_batsanov": [240.0, 210.0], "includesElement__electron_affinity": [1.970876], "includesElement__group_id": [16], "includesElement__c6_gb": [471.0], "includesElement__covalent_radius_bragg": [133.0], "includesElement__electronegativity_allen": [12.76], "includesElement__en_allen": [12.76], "includesElement__metallic_radius": [137.0], "includesElement__metallic_radius_c12": [160.0], "includesElement__thermal_conductivity": [14.3], "includesElement__c6": [445.0], "includesElement__vdw_radius_dreiding": [423.0], "includesElement__vdw_radius_bondi": [206.0], "formula": ["Te1Th1"], "spacegroup": ["221"], "thermalConductivity": [10.6111], "icsd": ["106140"], "band_gap": [0.0], "density": [10.32799], "density_atomic": [28.91139], "deprecated": [false], "efermi": [9.2578], "energy_above_hull": [0.0], "energy_per_atom": [-50.67797], "formation_energy_per_atom": [-1.231722], "homogeneous_poisson": [0.251], "is_gap_direct": [false], "is_magnetic": [false], "is_metal": [true], "is_stable": [true], "nelements": [2], "nsites": [2], "num_magnetic_sites": [0], "num_unique_magnetic_sites": [0], "theoretical": [false], "total_magnetization": [7.12e-05], "total_magnetization_normalized_formula_units": [7.12e-05], "total_magnetization_normalized_vol": [1.231349e-06], "uncorrected_energy_per_atom": [-50.67797], "universal_anisotropy": [0.03], "volume": [57.82278], "equilibrium_reaction_energy_per_atom": [-0.08318006]}