{"includesElement": ["", "Tl", "U"], "includesElement___series_id": [7, 10], "includesElement__abundance_crust": [0.85, 2.7], "includesElement__atomic_number": [81, 92], "includesElement__atomic_radius": [190.0, 175.0], "includesElement__atomic_radius_rahm": [242.0, 283.0], "includesElement__atomic_volume": [17.2, 12.5], "includesElement__atomic_weight": [204.38, 238.0289], "includesElement__covalent_radius_cordero": [145.0, 196.0], "includesElement__covalent_radius_pyykko": [144.0, 170.0], "includesElement__covalent_radius_pyykko_double": [142.0, 134.0], "includesElement__covalent_radius_pyykko_triple": [150.0, 118.0], "includesElement__density": [11.8, 19.1], "includesElement__dipole_polarizability": [50.0, 129.0], "includesElement__dipole_polarizability_unc": [2.0, 17.0], "includesElement__discovery_year": [1861, 1789], "includesElement__electron_affinity": [0.377], "includesElement__electronegativity_allred-rochow": [0.0002411265, 0.0001038062], "includesElement__electronegativity_cottrell-sutton": [0.186339, 0.1328422], "includesElement__electronegativity_ghosh": [0.173447, 0.13207], "includesElement__electronegativity_gordy": [0.03472222, 0.01764706], "includesElement__electronegativity_mulliken": [3.242643, 3.097025], "includesElement__electronegativity_nagle": [0.3914868, 0.3596283], "includesElement__electronegativity_pauling": [1.8, 1.7], "includesElement__electronegativity_sanderson": [0.9245096, 0.618118], "includesElement__en_ghosh": [0.173447, 0.13207], "includesElement__en_pauling": [1.8, 1.7], "includesElement__evaporation_heat": [162.4, 417.0], "includesElement__fusion_heat": [4.31, 12.6], "includesElement__glawe_number": [81, 36], "includesElement__group_id": [13], "includesElement__heat_of_formation": [182.2, 533.0], "includesElement__is_radioactive": [false, true], "includesElement__lattice_constant": [3.46, 2.85], "includesElement__mendeleev_number": [85, 20], "includesElement__molar_heat_capacity": [26.32, 27.665], "includesElement__period": [6, 7], "includesElement__pettifor_number": [78, 45], "includesElement__specific_heat_capacity": [0.129, 0.116], "includesElement__vdw_radius": [196.0, 241.0], "includesElement__vdw_radius_alvarez": [247.0, 271.0], "includesElement__vdw_radius_mm3": [259.0, 252.0], "includesElement__vdw_radius_uff": [434.7, 339.5], "includesElement__abundance_sea": [1.9e-05, 0.0032], "includesElement__c6_gb": [509.0], "includesElement__covalent_radius_bragg": [190.0], "includesElement__metallic_radius": [144.0], "includesElement__metallic_radius_c12": [160.0], "includesElement__thermal_conductivity": [46.1, 27.5], "includesElement__vdw_radius_batsanov": [220.0, 230.0], "includesElement__vdw_radius_bondi": [196.0], "includesElement__atomic_weight_uncertainty": [3e-05], "includesElement__gas_basicity": [973.2], "includesElement__proton_affinity": [995.2], "formula": ["Tl3U1"], "spacegroup": ["221"], "thermalConductivity": [1.11481], "icsd": ["106194"], "band_gap": [0.0], "density": [13.07686], "density_atomic": [27.02132], "deprecated": [false], "efermi": [8.100199], "energy_above_hull": [0.2124055], "energy_per_atom": [-59.65758], "formation_energy_per_atom": [0.2124055], "homogeneous_poisson": [0.275], "is_gap_direct": [false], "is_magnetic": [true], "is_metal": [true], "is_stable": [false], "nelements": [2], "nsites": [4], "num_magnetic_sites": [1], "num_unique_magnetic_sites": [1], "theoretical": [false], "total_magnetization": [2.684675], "total_magnetization_normalized_formula_units": [2.684675], "total_magnetization_normalized_vol": [0.02483849], "uncorrected_energy_per_atom": [-4.382429], "universal_anisotropy": [0.188], "volume": [108.0853]}