{"includesElement": ["", "K", "B"], "includesElement___series_id": [3, 5], "includesElement__abundance_crust": [20900.0, 10.0], "includesElement__atomic_number": [19, 5], "includesElement__atomic_radius": [220.0, 85.0], "includesElement__atomic_radius_rahm": [234.0, 205.0], "includesElement__atomic_volume": [45.3, 4.6], "includesElement__atomic_weight": [39.0983, 10.81], "includesElement__covalent_radius_cordero": [203.0, 84.0], "includesElement__covalent_radius_pyykko": [196.0, 85.0], "includesElement__covalent_radius_pyykko_double": [193.0, 78.0], "includesElement__density": [0.89, 2.34], "includesElement__dipole_polarizability": [289.7, 20.5], "includesElement__dipole_polarizability_unc": [0.3, 0.1], "includesElement__discovery_year": [1807, 1808], "includesElement__electron_affinity": [0.50147, 0.279723], "includesElement__electronegativity_allred-rochow": [5.726781e-05, 0.0003598616], "includesElement__electronegativity_cottrell-sutton": [0.1059457, 0.1748949], "includesElement__electronegativity_ghosh": [0.0981896, 0.184886], "includesElement__electronegativity_gordy": [0.01122449, 0.03058824], "includesElement__electronegativity_mulliken": [2.421067, 4.288871], "includesElement__electronegativity_nagle": [0.1511299, 0.5269739], "includesElement__electronegativity_pauling": [0.82, 2.04], "includesElement__electronegativity_sanderson": [0.1218383, 0.2546274], "includesElement__en_ghosh": [0.0981896, 0.184886], "includesElement__en_pauling": [0.82, 2.04], "includesElement__evaporation_heat": [2.33, 504.5], "includesElement__fusion_heat": [102.5, 23.6], "includesElement__glawe_number": [10, 86], "includesElement__group_id": [1, 13], "includesElement__heat_of_formation": [89.0, 565.0], "includesElement__is_radioactive": [false], "includesElement__lattice_constant": [5.23, 8.73], "includesElement__mendeleev_number": [3, 81], "includesElement__molar_heat_capacity": [29.6, 11.087], "includesElement__period": [4, 2], "includesElement__pettifor_number": [10, 86], "includesElement__specific_heat_capacity": [0.757, 1.026], "includesElement__vdw_radius": [275.0, 192.0], "includesElement__vdw_radius_alvarez": [273.0, 191.0], "includesElement__vdw_radius_mm3": [309.0, 215.0], "includesElement__vdw_radius_uff": [381.2, 408.3], "includesElement__abundance_sea": [399.0, 4.44], "includesElement__atomic_weight_uncertainty": [0.0001], "includesElement__c6_gb": [3910.0, 99.2], "includesElement__covalent_radius_bragg": [207.0], "includesElement__electronegativity_allen": [4.34, 12.13], "includesElement__en_allen": [4.34, 12.13], "includesElement__metallic_radius": [203.0, 80.0], "includesElement__metallic_radius_c12": [235.0, 98.0], "includesElement__thermal_conductivity": [79.0, 27.4], "includesElement__vdw_radius_batsanov": [280.0, 180.0], "includesElement__c6": [3923.0, 99.5], "includesElement__vdw_radius_bondi": [275.0], "includesElement__covalent_radius_pyykko_triple": [73.0], "includesElement__vdw_radius_dreiding": [402.0], "includesElement__vdw_radius_truhlar": [192.0], "formula": ["B6K1"], "spacegroup": ["221"], "thermalConductivity": [32.3132], "icsd": ["166487"], "band_gap": [0.0], "density": [2.309658], "density_atomic": [10.67794], "deprecated": [false], "efermi": [2.94516], "energy_above_hull": [0.0], "energy_per_atom": [-7.23695], "formation_energy_per_atom": [-0.08032315], "homogeneous_poisson": [0.207], "is_gap_direct": [false], "is_magnetic": [false], "is_metal": [true], "is_stable": [true], "nelements": [2], "nsites": [7], "num_magnetic_sites": [0], "num_unique_magnetic_sites": [0], "theoretical": [false], "total_magnetization": [0.0], "total_magnetization_normalized_formula_units": [0.0], "total_magnetization_normalized_vol": [0.0], "uncorrected_energy_per_atom": [-7.23695], "universal_anisotropy": [0.311], "volume": [74.74561], "equilibrium_reaction_energy_per_atom": [-0.08032315]}