{"includesElement": ["", "Gd", "B"], "includesElement___series_id": [9, 5], "includesElement__abundance_crust": [6.2, 10.0], "includesElement__atomic_number": [64, 5], "includesElement__atomic_radius": [180.0, 85.0], "includesElement__atomic_radius_rahm": [277.0, 205.0], "includesElement__atomic_volume": [19.9, 4.6], "includesElement__atomic_weight": [157.25, 10.81], "includesElement__covalent_radius_cordero": [196.0, 84.0], "includesElement__covalent_radius_pyykko": [169.0, 85.0], "includesElement__covalent_radius_pyykko_double": [135.0, 78.0], "includesElement__covalent_radius_pyykko_triple": [132.0, 73.0], "includesElement__density": [7.9, 2.34], "includesElement__dipole_polarizability": [158.0, 20.5], "includesElement__dipole_polarizability_unc": [20.0, 0.1], "includesElement__discovery_year": [1880, 1808], "includesElement__electronegativity_allred-rochow": [0.0001050383, 0.0003598616], "includesElement__electronegativity_cottrell-sutton": [0.1332347, 0.1748949], "includesElement__electronegativity_ghosh": [0.1944, 0.184886], "includesElement__electronegativity_gordy": [0.01775148, 0.03058824], "includesElement__electronegativity_mulliken": [3.074898, 4.288871], "includesElement__electronegativity_nagle": [0.3985177, 0.5269739], "includesElement__electronegativity_pauling": [1.2, 2.04], "includesElement__electronegativity_sanderson": [0.503386, 0.2546274], "includesElement__en_ghosh": [0.1944, 0.184886], "includesElement__en_pauling": [1.2, 2.04], "includesElement__evaporation_heat": [398.0, 504.5], "includesElement__glawe_number": [26, 86], "includesElement__heat_of_formation": [397.5, 565.0], "includesElement__is_radioactive": [false], "includesElement__lattice_constant": [3.64, 8.73], "includesElement__mendeleev_number": [27, 81], "includesElement__molar_heat_capacity": [37.03, 11.087], "includesElement__period": [6, 2], "includesElement__pettifor_number": [27, 86], "includesElement__specific_heat_capacity": [0.236, 1.026], "includesElement__vdw_radius": [234.0, 192.0], "includesElement__vdw_radius_alvarez": [283.0, 191.0], "includesElement__vdw_radius_mm3": [271.0, 215.0], "includesElement__vdw_radius_uff": [336.8, 408.3], "includesElement__abundance_sea": [7e-07, 4.44], "includesElement__atomic_weight_uncertainty": [0.03], "includesElement__c6_gb": [2340.0, 99.2], "includesElement__electron_affinity": [0.279723], "includesElement__fusion_heat": [23.6], "includesElement__group_id": [13], "includesElement__electronegativity_allen": [12.13], "includesElement__en_allen": [12.13], "includesElement__metallic_radius": [80.0], "includesElement__metallic_radius_c12": [98.0], "includesElement__thermal_conductivity": [27.4], "includesElement__vdw_radius_batsanov": [180.0], "includesElement__c6": [99.5], "includesElement__vdw_radius_dreiding": [402.0], "includesElement__vdw_radius_truhlar": [192.0], "formula": ["B6Gd1"], "spacegroup": ["221"], "thermalConductivity": [14.4375], "icsd": ["602750"], "band_gap": [0.0], "density": [5.345935], "density_atomic": [9.856148], "deprecated": [false], "efermi": [6.356128], "energy_above_hull": [0.0], "energy_per_atom": [-12.98639], "formation_energy_per_atom": [-0.4899468], "homogeneous_poisson": [0.259], "is_gap_direct": [false], "is_magnetic": [true], "is_metal": [true], "is_stable": [true], "nelements": [2], "nsites": [7], "num_magnetic_sites": [1], "num_unique_magnetic_sites": [1], "theoretical": [false], "total_magnetization": [6.839141], "total_magnetization_normalized_formula_units": [6.839141], "total_magnetization_normalized_vol": [0.09912799], "uncorrected_energy_per_atom": [-12.98639], "universal_anisotropy": [3.249], "volume": [68.99304], "equilibrium_reaction_energy_per_atom": [-0.03014529]}