{"includesElement": ["", "Ni", "Mn"], "includesElement___series_id": [8], "includesElement__abundance_crust": [84.0, 950.0], "includesElement__atomic_number": [28, 25], "includesElement__atomic_radius": [135.0, 140.0], "includesElement__atomic_radius_rahm": [229.0, 242.0], "includesElement__atomic_volume": [6.6, 7.39], "includesElement__atomic_weight": [58.6934, 54.93804], "includesElement__covalent_radius_cordero": [124.0, 150.0], "includesElement__covalent_radius_pyykko": [110.0, 119.0], "includesElement__covalent_radius_pyykko_double": [101.0, 105.0], "includesElement__covalent_radius_pyykko_triple": [101.0, 103.0], "includesElement__density": [8.9, 7.3], "includesElement__dipole_polarizability": [49.0, 68.0], "includesElement__dipole_polarizability_unc": [3.0, 9.0], "includesElement__discovery_year": [1751, 1774], "includesElement__electron_affinity": [1.156], "includesElement__electronegativity_allred-rochow": [0.0003347107, 0.0002542193], "includesElement__electronegativity_cottrell-sutton": [0.1918806, 0.1739313], "includesElement__electronegativity_ghosh": [0.1472068, 0.1352844], "includesElement__electronegativity_gordy": [0.03681818, 0.0302521], "includesElement__electronegativity_mulliken": [4.397939, 3.717009], "includesElement__electronegativity_nagle": [0.588755, 0.4686656], "includesElement__electronegativity_pauling": [1.91, 1.55], "includesElement__electronegativity_sanderson": [0.937704, 0.6707264], "includesElement__en_ghosh": [0.1472068, 0.1352844], "includesElement__en_pauling": [1.91, 1.55], "includesElement__evaporation_heat": [378.6, 221.0], "includesElement__fusion_heat": [17.61, 13.4], "includesElement__glawe_number": [69, 72], "includesElement__group_id": [10, 7], "includesElement__heat_of_formation": [430.1, 283.3], "includesElement__is_radioactive": [false], "includesElement__lattice_constant": [3.52, 8.89], "includesElement__mendeleev_number": [67, 55], "includesElement__molar_heat_capacity": [26.07, 26.32], "includesElement__period": [4], "includesElement__pettifor_number": [67, 60], "includesElement__specific_heat_capacity": [0.444, 0.479], "includesElement__vdw_radius": [197.0, 205.0], "includesElement__vdw_radius_alvarez": [240.0, 245.0], "includesElement__vdw_radius_mm3": [222.0, 224.0], "includesElement__vdw_radius_uff": [283.4, 296.1], "includesElement__abundance_sea": [0.00056, 0.0002], "includesElement__atomic_weight_uncertainty": [0.0004, 3e-06], "includesElement__c6_gb": [393.0, 635.0], "includesElement__covalent_radius_bragg": [135.0, 147.0], "includesElement__electronegativity_allen": [11.13, 10.34], "includesElement__en_allen": [11.13, 10.34], "includesElement__metallic_radius": [115.0, 118.0], "includesElement__metallic_radius_c12": [124.0, 127.0], "includesElement__thermal_conductivity": [90.9], "includesElement__vdw_radius_batsanov": [200.0, 205.0], "includesElement__c6": [373.0, 552.0], "includesElement__gas_basicity": [714.1, 774.4], "includesElement__proton_affinity": [737.0, 797.3], "includesElement__is_monoisotopic": [true], "formula": ["Mn1Ni3"], "spacegroup": ["221"], "thermalConductivity": [4.091], "icsd": ["104920"], "band_gap": [0.0], "density": [8.622042], "density_atomic": [11.12308], "deprecated": [false], "efermi": [7.237279], "energy_above_hull": [0.0], "energy_per_atom": [-12.89326], "formation_energy_per_atom": [-0.2361348], "is_gap_direct": [false], "is_magnetic": [true], "is_metal": [true], "is_stable": [true], "nelements": [2], "nsites": [4], "num_magnetic_sites": [4], "num_unique_magnetic_sites": [2], "theoretical": [false], "total_magnetization": [5.448362], "total_magnetization_normalized_formula_units": [5.448362], "total_magnetization_normalized_vol": [0.1224562], "uncorrected_energy_per_atom": [-12.89326], "volume": [44.49234], "equilibrium_reaction_energy_per_atom": [-0.05486613]}