{"includesElement": ["", "La", "I"], "includesElement___series_id": [9, 6], "includesElement__abundance_crust": [39.0, 0.45], "includesElement__atomic_number": [57, 53], "includesElement__atomic_radius": [195.0, 140.0], "includesElement__atomic_radius_rahm": [284.0, 238.0], "includesElement__atomic_volume": [22.5, 25.7], "includesElement__atomic_weight": [138.9055, 126.9045], "includesElement__covalent_radius_cordero": [207.0, 139.0], "includesElement__covalent_radius_pyykko": [180.0, 133.0], "includesElement__covalent_radius_pyykko_double": [139.0, 129.0], "includesElement__covalent_radius_pyykko_triple": [139.0, 125.0], "includesElement__density": [6.15, 4.933], "includesElement__dipole_polarizability": [215.0, 32.9], "includesElement__dipole_polarizability_unc": [20.0, 1.3], "includesElement__discovery_year": [1839, 1811], "includesElement__electron_affinity": [0.47, 3.059037], "includesElement__electronegativity_allred-rochow": [9.259259e-05, 0.0004296455], "includesElement__electronegativity_cottrell-sutton": [0.1290994, 0.2390457], "includesElement__electronegativity_ghosh": [0.163142, 0.2195176], "includesElement__electronegativity_gordy": [0.01666667, 0.05714286], "includesElement__electronegativity_mulliken": [3.02345, 6.755148], "includesElement__electronegativity_nagle": [0.240747, 0.5969904], "includesElement__electronegativity_pauling": [1.1, 2.66], "includesElement__electronegativity_sanderson": [0.3946505, 0.9386429], "includesElement__en_ghosh": [0.163142, 0.2195176], "includesElement__en_pauling": [1.1, 2.66], "includesElement__evaporation_heat": [402.0, 41.95], "includesElement__fusion_heat": [8.5, 15.52], "includesElement__glawe_number": [32, 99], "includesElement__group_id": [3, 17], "includesElement__heat_of_formation": [431.0, 106.757], "includesElement__is_radioactive": [false], "includesElement__lattice_constant": [3.75, 7.72], "includesElement__mendeleev_number": [13, 109], "includesElement__molar_heat_capacity": [27.11, 54.43], "includesElement__period": [6, 5], "includesElement__pettifor_number": [33, 97], "includesElement__specific_heat_capacity": [0.195, 0.214], "includesElement__vdw_radius": [243.0, 198.0], "includesElement__vdw_radius_alvarez": [298.0, 204.0], "includesElement__vdw_radius_mm3": [278.0, 236.0], "includesElement__vdw_radius_uff": [352.2, 450.0], "includesElement__abundance_sea": [3.4e-06, 0.06], "includesElement__atomic_weight_uncertainty": [7e-05, 3e-05], "includesElement__c6_gb": [3730.0, 389.0], "includesElement__metallic_radius": [169.0], "includesElement__metallic_radius_c12": [187.0, 139.0], "includesElement__thermal_conductivity": [13.4], "includesElement__vdw_radius_batsanov": [250.0, 210.0], "includesElement__gas_basicity": [991.9, 583.5], "includesElement__proton_affinity": [1013.0, 608.2], "includesElement__covalent_radius_bragg": [140.0], "includesElement__electronegativity_allen": [13.95], "includesElement__en_allen": [13.95], "includesElement__c6": [385.0], "includesElement__is_monoisotopic": [true], "includesElement__vdw_radius_dreiding": [415.0], "includesElement__vdw_radius_bondi": [198.0], "includesElement__vdw_radius_rt": [203.0], "formula": ["I2La2"], "spacegroup": ["194"], "thermalConductivity": [3.37823], "icsd": ["171451"], "band_gap": [0.0], "density": [6.586664], "density_atomic": [33.50617], "deprecated": [false], "efermi": [8.75442], "energy_above_hull": [0.0], "energy_per_atom": [-4.495942], "formation_energy_per_atom": [-1.291256], "is_gap_direct": [false], "is_magnetic": [false], "is_metal": [true], "is_stable": [true], "nelements": [2], "nsites": [4], "num_magnetic_sites": [0], "num_unique_magnetic_sites": [0], "theoretical": [false], "total_magnetization": [1.34e-05], "total_magnetization_normalized_formula_units": [6.7e-06], "total_magnetization_normalized_vol": [9.998158e-08], "uncorrected_energy_per_atom": [-28.4087], "volume": [134.0247], "equilibrium_reaction_energy_per_atom": [-0.006693456]}