{"includesElement": ["", "P", "Cr"], "includesElement___series_id": [1, 8], "includesElement__abundance_crust": [1050.0, 102.0], "includesElement__atomic_number": [15, 24], "includesElement__atomic_radius": [100.0, 140.0], "includesElement__atomic_radius_rahm": [223.0, 233.0], "includesElement__atomic_volume": [17.0, 7.23], "includesElement__atomic_weight": [30.97376, 51.9961], "includesElement__covalent_radius_cordero": [107.0, 139.0], "includesElement__covalent_radius_pyykko": [111.0, 122.0], "includesElement__covalent_radius_pyykko_double": [102.0, 111.0], "includesElement__covalent_radius_pyykko_triple": [94.0, 103.0], "includesElement__density": [1.823, 7.15], "includesElement__dipole_polarizability": [25.0, 83.0], "includesElement__dipole_polarizability_unc": [1.0, 12.0], "includesElement__discovery_year": [1669, 1797], "includesElement__electron_affinity": [0.746607, 0.666], "includesElement__electronegativity_allred-rochow": [0.0003895788, 0.0001981994], "includesElement__electronegativity_cottrell-sutton": [0.2079501, 0.1555003], "includesElement__electronegativity_ghosh": [0.206931, 0.1313053], "includesElement__electronegativity_gordy": [0.04324324, 0.02418033], "includesElement__electronegativity_mulliken": [5.616646, 3.716255], "includesElement__electronegativity_nagle": [0.5848035, 0.4165729], "includesElement__electronegativity_pauling": [2.19, 1.66], "includesElement__electronegativity_sanderson": [0.4510269, 0.6017723], "includesElement__en_ghosh": [0.206931, 0.1313053], "includesElement__en_pauling": [2.19, 1.66], "includesElement__evaporation_heat": [49.8, 342.0], "includesElement__fusion_heat": [2.51, 21.0], "includesElement__glawe_number": [89, 55], "includesElement__group_id": [15, 6], "includesElement__heat_of_formation": [316.5, 397.48], "includesElement__is_radioactive": [false], "includesElement__lattice_constant": [7.17, 2.88], "includesElement__mendeleev_number": [94, 51], "includesElement__molar_heat_capacity": [23.824, 23.35], "includesElement__period": [3, 4], "includesElement__pettifor_number": [90, 57], "includesElement__specific_heat_capacity": [0.769, 0.449], "includesElement__vdw_radius": [180.0, 206.0], "includesElement__vdw_radius_alvarez": [190.0, 245.0], "includesElement__vdw_radius_mm3": [222.0, 225.0], "includesElement__vdw_radius_uff": [414.7, 302.3], "includesElement__abundance_sea": [0.06, 0.0003], "includesElement__atomic_weight_uncertainty": [5e-09, 0.0006], "includesElement__c6_gb": [187.0, 709.0], "includesElement__electronegativity_allen": [13.33, 9.77], "includesElement__en_allen": [13.33, 9.77], "includesElement__metallic_radius": [110.0, 119.0], "includesElement__metallic_radius_c12": [128.0], "includesElement__vdw_radius_batsanov": [195.0, 205.0], "includesElement__c6": [185.0, 602.0], "includesElement__is_monoisotopic": [true], "includesElement__vdw_radius_dreiding": [415.0], "includesElement__gas_basicity": [604.8, 768.4], "includesElement__proton_affinity": [626.8, 791.3], "includesElement__vdw_radius_bondi": [180.0], "includesElement__covalent_radius_bragg": [140.0], "includesElement__thermal_conductivity": [93.9], "formula": ["Cr2P8"], "spacegroup": ["15"], "thermalConductivity": [13.7047], "icsd": ["2790"], "band_gap": [0.0], "density": [3.939761], "density_atomic": [14.827], "deprecated": [false], "efermi": [8.472752], "energy_above_hull": [0.0], "energy_per_atom": [-10.48049], "formation_energy_per_atom": [-0.2641651], "homogeneous_poisson": [0.183], "is_gap_direct": [false], "is_magnetic": [false], "is_metal": [true], "is_stable": [true], "nelements": [2], "nsites": [10], "num_magnetic_sites": [0], "num_unique_magnetic_sites": [0], "theoretical": [false], "total_magnetization": [0.0], "total_magnetization_normalized_formula_units": [0.0], "total_magnetization_normalized_vol": [0.0], "uncorrected_energy_per_atom": [-10.48049], "universal_anisotropy": [0.679], "volume": [148.27], "equilibrium_reaction_energy_per_atom": [-0.1014446]}