{"includesElement": ["", "Er", "Te"], "includesElement___series_id": [9, 5], "includesElement__abundance_crust": [3.5, 0.001], "includesElement__atomic_number": [68, 52], "includesElement__atomic_radius": [175.0, 140.0], "includesElement__atomic_radius_rahm": [272.0, 242.0], "includesElement__atomic_volume": [18.4, 20.5], "includesElement__atomic_weight": [167.259, 127.6], "includesElement__covalent_radius_cordero": [189.0, 138.0], "includesElement__covalent_radius_pyykko": [165.0, 136.0], "includesElement__covalent_radius_pyykko_double": [133.0, 128.0], "includesElement__density": [9.07, 6.232], "includesElement__dipole_polarizability": [150.0, 38.0], "includesElement__dipole_polarizability_unc": [10.0, 4.0], "includesElement__discovery_year": [1843, 1782], "includesElement__electronegativity_allred-rochow": [0.0001046832, 0.0003757569], "includesElement__electronegativity_cottrell-sutton": [0.1314257, 0.2260596], "includesElement__electronegativity_ghosh": [0.212261, 0.2056992], "includesElement__electronegativity_gordy": [0.01727273, 0.05110294], "includesElement__electronegativity_mulliken": [3.05385, 5.490268], "includesElement__electronegativity_nagle": [0.4536061, 0.5404919], "includesElement__electronegativity_pauling": [1.24, 2.1], "includesElement__electronegativity_sanderson": [0.5576573, 0.8622506], "includesElement__en_ghosh": [0.212261, 0.2056992], "includesElement__en_pauling": [1.24, 2.1], "includesElement__evaporation_heat": [317.0, 49.8], "includesElement__glawe_number": [22, 94], "includesElement__heat_of_formation": [316.4, 196.6], "includesElement__is_radioactive": [false], "includesElement__lattice_constant": [3.56, 4.45], "includesElement__mendeleev_number": [35, 102], "includesElement__molar_heat_capacity": [28.12, 25.73], "includesElement__period": [6, 5], "includesElement__pettifor_number": [23, 92], "includesElement__specific_heat_capacity": [0.168, 0.202], "includesElement__vdw_radius": [229.0, 206.0], "includesElement__vdw_radius_alvarez": [283.0, 199.0], "includesElement__vdw_radius_mm3": [267.0, 244.0], "includesElement__vdw_radius_uff": [339.1, 447.0], "includesElement__abundance_sea": [8.7e-07], "includesElement__atomic_weight_uncertainty": [0.003, 0.03], "includesElement__c6_gb": [2150.0, 471.0], "includesElement__covalent_radius_pyykko_triple": [121.0], "includesElement__electron_affinity": [1.970876], "includesElement__fusion_heat": [17.91], "includesElement__group_id": [16], "includesElement__covalent_radius_bragg": [133.0], "includesElement__electronegativity_allen": [12.76], "includesElement__en_allen": [12.76], "includesElement__metallic_radius": [137.0], "includesElement__metallic_radius_c12": [160.0], "includesElement__thermal_conductivity": [14.3], "includesElement__vdw_radius_batsanov": [210.0], "includesElement__c6": [445.0], "includesElement__vdw_radius_dreiding": [423.0], "includesElement__vdw_radius_bondi": [206.0], "formula": ["Er1Te1"], "spacegroup": ["225"], "thermalConductivity": [3.44195], "icsd": ["43646"], "band_gap": [0.0], "density": [8.698321], "density_atomic": [28.14479], "deprecated": [false], "efermi": [6.631631], "energy_above_hull": [0.0], "energy_per_atom": [-31.07656], "formation_energy_per_atom": [-1.405232], "homogeneous_poisson": [0.362], "is_gap_direct": [false], "is_magnetic": [false], "is_metal": [true], "is_stable": [true], "nelements": [2], "nsites": [2], "num_magnetic_sites": [0], "num_unique_magnetic_sites": [0], "theoretical": [false], "total_magnetization": [9.2e-06], "total_magnetization_normalized_formula_units": [9.2e-06], "total_magnetization_normalized_vol": [1.634405e-07], "uncorrected_energy_per_atom": [-31.07656], "universal_anisotropy": [17.983], "volume": [56.28958], "equilibrium_reaction_energy_per_atom": [-0.03450461]}