{"includesElement": ["", "Tl", "I"], "includesElement___series_id": [7, 6], "includesElement__abundance_crust": [0.85, 0.45], "includesElement__atomic_number": [81, 53], "includesElement__atomic_radius": [190.0, 140.0], "includesElement__atomic_radius_rahm": [242.0, 238.0], "includesElement__atomic_volume": [17.2, 25.7], "includesElement__atomic_weight": [204.38, 126.9045], "includesElement__covalent_radius_cordero": [145.0, 139.0], "includesElement__covalent_radius_pyykko": [144.0, 133.0], "includesElement__covalent_radius_pyykko_double": [142.0, 129.0], "includesElement__covalent_radius_pyykko_triple": [150.0, 125.0], "includesElement__density": [11.8, 4.933], "includesElement__dipole_polarizability": [50.0, 32.9], "includesElement__dipole_polarizability_unc": [2.0, 1.3], "includesElement__discovery_year": [1861, 1811], "includesElement__electron_affinity": [0.377, 3.059037], "includesElement__electronegativity_allred-rochow": [0.0002411265, 0.0004296455], "includesElement__electronegativity_cottrell-sutton": [0.186339, 0.2390457], "includesElement__electronegativity_ghosh": [0.173447, 0.2195176], "includesElement__electronegativity_gordy": [0.03472222, 0.05714286], "includesElement__electronegativity_mulliken": [3.242643, 6.755148], "includesElement__electronegativity_nagle": [0.3914868, 0.5969904], "includesElement__electronegativity_pauling": [1.8, 2.66], "includesElement__electronegativity_sanderson": [0.9245096, 0.9386429], "includesElement__en_ghosh": [0.173447, 0.2195176], "includesElement__en_pauling": [1.8, 2.66], "includesElement__evaporation_heat": [162.4, 41.95], "includesElement__fusion_heat": [4.31, 15.52], "includesElement__glawe_number": [81, 99], "includesElement__group_id": [13, 17], "includesElement__heat_of_formation": [182.2, 106.757], "includesElement__is_radioactive": [false], "includesElement__lattice_constant": [3.46, 7.72], "includesElement__mendeleev_number": [85, 109], "includesElement__molar_heat_capacity": [26.32, 54.43], "includesElement__period": [6, 5], "includesElement__pettifor_number": [78, 97], "includesElement__specific_heat_capacity": [0.129, 0.214], "includesElement__vdw_radius": [196.0, 198.0], "includesElement__vdw_radius_alvarez": [247.0, 204.0], "includesElement__vdw_radius_mm3": [259.0, 236.0], "includesElement__vdw_radius_uff": [434.7, 450.0], "includesElement__abundance_sea": [1.9e-05, 0.06], "includesElement__c6_gb": [509.0, 389.0], "includesElement__covalent_radius_bragg": [190.0, 140.0], "includesElement__metallic_radius": [144.0], "includesElement__metallic_radius_c12": [160.0, 139.0], "includesElement__thermal_conductivity": [46.1], "includesElement__vdw_radius_batsanov": [220.0, 210.0], "includesElement__vdw_radius_bondi": [196.0, 198.0], "includesElement__atomic_weight_uncertainty": [3e-05], "includesElement__electronegativity_allen": [13.95], "includesElement__en_allen": [13.95], "includesElement__c6": [385.0], "includesElement__is_monoisotopic": [true], "includesElement__vdw_radius_dreiding": [415.0], "includesElement__gas_basicity": [583.5], "includesElement__proton_affinity": [608.2], "includesElement__vdw_radius_rt": [203.0], "formula": ["I1Tl1"], "spacegroup": ["221"], "thermalConductivity": [0.488967], "icsd": ["53854"], "band_gap": [1.8108], "density": [7.22613], "density_atomic": [38.06438], "deprecated": [false], "efermi": [2.871729], "energy_above_hull": [0.02075969], "energy_per_atom": [-2.793127], "formation_energy_per_atom": [-0.8707081], "homogeneous_poisson": [0.325], "is_gap_direct": [false], "is_magnetic": [false], "is_metal": [false], "is_stable": [false], "nelements": [2], "nsites": [2], "num_magnetic_sites": [0], "num_unique_magnetic_sites": [0], "theoretical": [false], "total_magnetization": [0.0], "total_magnetization_normalized_formula_units": [0.0], "total_magnetization_normalized_vol": [0.0], "uncorrected_energy_per_atom": [-39.60285], "universal_anisotropy": [1.054], "volume": [76.12876], "cbm": [4.6008], "e_electronic": [8.314574], "e_ionic": [36.18515], "e_total": [44.49972], "n": [2.8835], "vbm": [2.79]}