{"includesElement": ["", "Al", "Yb"], "includesElement___series_id": [7, 9], "includesElement__abundance_crust": [82300.0, 3.2], "includesElement__atomic_number": [13, 70], "includesElement__atomic_radius": [125.0, 175.0], "includesElement__atomic_radius_rahm": [239.0, 277.0], "includesElement__atomic_volume": [10.0, 24.8], "includesElement__atomic_weight": [26.98154, 173.045], "includesElement__covalent_radius_cordero": [121.0, 187.0], "includesElement__covalent_radius_pyykko": [126.0, 170.0], "includesElement__covalent_radius_pyykko_double": [113.0, 129.0], "includesElement__covalent_radius_pyykko_triple": [111.0], "includesElement__density": [2.7, 6.9], "includesElement__dipole_polarizability": [57.8, 139.0], "includesElement__dipole_polarizability_unc": [1.0, 6.0], "includesElement__discovery_year": [1825, 1878], "includesElement__electron_affinity": [0.43283, -0.02], "includesElement__electronegativity_allred-rochow": [0.0002204586, 9.861592e-05], "includesElement__electronegativity_cottrell-sutton": [0.1666667, 0.1294786], "includesElement__electronegativity_ghosh": [0.150078, 0.22119], "includesElement__electronegativity_gordy": [0.02777778, 0.01676471], "includesElement__electronegativity_mulliken": [3.209299, 3.11708], "includesElement__electronegativity_nagle": [0.3730192, 0.4864465], "includesElement__electronegativity_pauling": [1.61], "includesElement__electronegativity_sanderson": [0.2360927, 0.5176678], "includesElement__en_ghosh": [0.150078, 0.22119], "includesElement__en_pauling": [1.61], "includesElement__evaporation_heat": [284.1, 159.0], "includesElement__fusion_heat": [10.75, 3.35], "includesElement__glawe_number": [78, 18], "includesElement__group_id": [13], "includesElement__heat_of_formation": [330.9, 155.6], "includesElement__is_radioactive": [false], "includesElement__lattice_constant": [4.05, 5.49], "includesElement__mendeleev_number": [82, 39], "includesElement__molar_heat_capacity": [24.2, 26.74], "includesElement__period": [3, 6], "includesElement__pettifor_number": [80, 17], "includesElement__specific_heat_capacity": [0.897, 0.155], "includesElement__vdw_radius": [184.0, 226.0], "includesElement__vdw_radius_alvarez": [225.0, 280.0], "includesElement__vdw_radius_mm3": [236.0, 279.0], "includesElement__vdw_radius_uff": [449.9, 335.5], "includesElement__abundance_sea": [0.002, 8.2e-07], "includesElement__atomic_weight_uncertainty": [7e-07, 0.01], "includesElement__c6_gb": [520.0, 1910.0], "includesElement__covalent_radius_bragg": [135.0], "includesElement__electronegativity_allen": [9.539], "includesElement__en_allen": [9.539], "includesElement__metallic_radius": [125.0], "includesElement__metallic_radius_c12": [143.0], "includesElement__thermal_conductivity": [237.0], "includesElement__vdw_radius_batsanov": [210.0], "includesElement__c6": [528.0], "includesElement__is_monoisotopic": [true], "includesElement__vdw_radius_dreiding": [439.0], "includesElement__vdw_radius_truhlar": [184.0], "formula": ["Al3Yb1"], "spacegroup": ["221"], "thermalConductivity": [8.13867], "icsd": ["58224"], "band_gap": [0.0], "density": [5.333926], "density_atomic": [19.7674], "deprecated": [false], "efermi": [4.968598], "homogeneous_poisson": [0.155], "is_gap_direct": [false], "is_magnetic": [false], "is_metal": [true], "is_stable": [false], "nelements": [2], "nsites": [4], "num_magnetic_sites": [0], "num_unique_magnetic_sites": [0], "theoretical": [false], "total_magnetization": [2.1e-06], "total_magnetization_normalized_formula_units": [2.1e-06], "total_magnetization_normalized_vol": [2.655888e-08], "universal_anisotropy": [0.007], "volume": [79.06959]}