{"includesElement": ["", "Al", "V"], "includesElement___series_id": [7, 8], "includesElement__abundance_crust": [82300.0, 120.0], "includesElement__atomic_number": [13, 23], "includesElement__atomic_radius": [125.0, 135.0], "includesElement__atomic_radius_rahm": [239.0, 252.0], "includesElement__atomic_volume": [10.0, 8.35], "includesElement__atomic_weight": [26.98154, 50.9415], "includesElement__covalent_radius_cordero": [121.0, 153.0], "includesElement__covalent_radius_pyykko": [126.0, 134.0], "includesElement__covalent_radius_pyykko_double": [113.0, 112.0], "includesElement__covalent_radius_pyykko_triple": [111.0, 106.0], "includesElement__density": [2.7, 6.0], "includesElement__dipole_polarizability": [57.8, 87.0], "includesElement__dipole_polarizability_unc": [1.0, 10.0], "includesElement__discovery_year": [1825, 1830], "includesElement__electron_affinity": [0.43283, 0.525], "includesElement__electronegativity_allred-rochow": [0.0002204586, 0.0001837826], "includesElement__electronegativity_cottrell-sutton": [0.1666667, 0.1569295], "includesElement__electronegativity_ghosh": [0.150078, 0.1273344], "includesElement__electronegativity_gordy": [0.02777778, 0.02462687], "includesElement__electronegativity_mulliken": [3.209299, 3.635594], "includesElement__electronegativity_nagle": [0.3730192, 0.3859078], "includesElement__electronegativity_pauling": [1.61, 1.63], "includesElement__electronegativity_sanderson": [0.2360927, 0.4388898], "includesElement__en_ghosh": [0.150078, 0.1273344], "includesElement__en_pauling": [1.61, 1.63], "includesElement__evaporation_heat": [284.1, 460.0], "includesElement__fusion_heat": [10.75, 17.5], "includesElement__glawe_number": [78, 54], "includesElement__group_id": [13, 5], "includesElement__heat_of_formation": [330.9, 515.5], "includesElement__is_radioactive": [false], "includesElement__lattice_constant": [4.05, 3.02], "includesElement__mendeleev_number": [82, 47], "includesElement__molar_heat_capacity": [24.2, 24.89], "includesElement__period": [3, 4], "includesElement__pettifor_number": [80, 54], "includesElement__specific_heat_capacity": [0.897, 0.489], "includesElement__vdw_radius": [184.0, 207.0], "includesElement__vdw_radius_alvarez": [225.0, 242.0], "includesElement__vdw_radius_mm3": [236.0, 229.0], "includesElement__vdw_radius_uff": [449.9, 314.4], "includesElement__abundance_sea": [0.002, 0.0025], "includesElement__atomic_weight_uncertainty": [7e-07, 0.0001], "includesElement__c6_gb": [520.0, 955.0], "includesElement__covalent_radius_bragg": [135.0], "includesElement__electronegativity_allen": [9.539, 9.063], "includesElement__en_allen": [9.539, 9.063], "includesElement__metallic_radius": [125.0, 122.0], "includesElement__metallic_radius_c12": [143.0, 134.0], "includesElement__thermal_conductivity": [237.0, 30.7], "includesElement__vdw_radius_batsanov": [210.0, 205.0], "includesElement__c6": [528.0, 832.0], "includesElement__is_monoisotopic": [true], "includesElement__vdw_radius_dreiding": [439.0], "includesElement__vdw_radius_truhlar": [184.0], "includesElement__gas_basicity": [836.8], "includesElement__proton_affinity": [859.4], "formula": ["Al40V4"], "spacegroup": ["227"], "thermalConductivity": [1.54549], "icsd": ["58202"], "band_gap": [0.0], "density": [2.898993], "density_atomic": [16.70265], "deprecated": [false], "efermi": [7.213642], "energy_above_hull": [0.02345537], "energy_per_atom": [-7.502557], "formation_energy_per_atom": [-0.1015969], "is_gap_direct": [false], "is_magnetic": [false], "is_metal": [true], "is_stable": [false], "nelements": [2], "nsites": [44], "num_magnetic_sites": [0], "num_unique_magnetic_sites": [0], "theoretical": [false], "total_magnetization": [0.0002333], "total_magnetization_normalized_formula_units": [5.8325e-05], "total_magnetization_normalized_vol": [3.174511e-07], "uncorrected_energy_per_atom": [-7.502557], "volume": [734.9164]}