{"includesElement": ["", "Ti", "C"], "includesElement___series_id": [8, 1], "includesElement__abundance_crust": [5650.0, 200.0], "includesElement__atomic_number": [22, 6], "includesElement__atomic_radius": [140.0, 70.0], "includesElement__atomic_radius_rahm": [257.0, 190.0], "includesElement__atomic_volume": [10.6, 5.3], "includesElement__atomic_weight": [47.867, 12.011], "includesElement__covalent_radius_cordero": [160.0, 73.0], "includesElement__covalent_radius_pyykko": [136.0, 75.0], "includesElement__covalent_radius_pyykko_double": [117.0, 67.0], "includesElement__covalent_radius_pyykko_triple": [108.0, 60.0], "includesElement__density": [4.506, 2.2], "includesElement__dipole_polarizability": [100.0, 11.3], "includesElement__dipole_polarizability_unc": [10.0, 0.2], "includesElement__discovery_year": [1791], "includesElement__electron_affinity": [0.079, 1.262119], "includesElement__electronegativity_allred-rochow": [0.0001703071, 0.0005777778], "includesElement__electronegativity_cottrell-sutton": [0.1521899, 0.2081666], "includesElement__electronegativity_ghosh": [0.1233637, 0.224776], "includesElement__electronegativity_gordy": [0.02316176, 0.04333333], "includesElement__electronegativity_mulliken": [3.45356, 6.261208], "includesElement__electronegativity_nagle": [0.3419952, 0.7073926], "includesElement__electronegativity_pauling": [1.54, 2.55], "includesElement__electronegativity_sanderson": [0.4055462, 0.427525], "includesElement__en_ghosh": [0.1233637, 0.224776], "includesElement__en_pauling": [1.54, 2.55], "includesElement__evaporation_heat": [422.6], "includesElement__fusion_heat": [18.8], "includesElement__glawe_number": [51, 87], "includesElement__group_id": [4, 14], "includesElement__heat_of_formation": [473.0, 716.87], "includesElement__is_radioactive": [false], "includesElement__lattice_constant": [2.95, 3.57], "includesElement__mendeleev_number": [43, 87], "includesElement__molar_heat_capacity": [25.06, 8.517], "includesElement__period": [4, 2], "includesElement__pettifor_number": [51, 95], "includesElement__specific_heat_capacity": [0.523, 0.709], "includesElement__vdw_radius": [211.0, 170.0], "includesElement__vdw_radius_alvarez": [246.0, 177.0], "includesElement__vdw_radius_mm3": [239.0, 204.0], "includesElement__vdw_radius_uff": [317.5, 385.1], "includesElement__abundance_sea": [0.001, 28.0], "includesElement__atomic_weight_uncertainty": [0.001], "includesElement__c6_gb": [1200.0, 47.9], "includesElement__covalent_radius_bragg": [140.0, 77.0], "includesElement__electronegativity_allen": [8.17, 15.05], "includesElement__en_allen": [8.17, 15.05], "includesElement__metallic_radius": [132.0], "includesElement__metallic_radius_c12": [147.0, 86.0], "includesElement__thermal_conductivity": [21.9, 1.59], "includesElement__vdw_radius_batsanov": [215.0, 170.0], "includesElement__c6": [1044.0, 46.6], "includesElement__gas_basicity": [853.7], "includesElement__proton_affinity": [876.0], "includesElement__vdw_radius_dreiding": [389.83], "includesElement__vdw_radius_bondi": [170.0], "includesElement__vdw_radius_rt": [177.0], "formula": ["C4Ti8"], "spacegroup": ["227"], "thermalConductivity": [11.9129], "icsd": ["77473"], "band_gap": [0.0], "density": [4.461577], "density_atomic": [13.36704], "deprecated": [false], "efermi": [6.03745], "energy_above_hull": [0.0], "energy_per_atom": [-8.983064], "formation_energy_per_atom": [-0.643181], "homogeneous_poisson": [0.217], "is_gap_direct": [false], "is_magnetic": [false], "is_metal": [true], "is_stable": [true], "nelements": [2], "nsites": [12], "num_magnetic_sites": [0], "num_unique_magnetic_sites": [0], "theoretical": [false], "total_magnetization": [4e-07], "total_magnetization_normalized_formula_units": [1e-07], "total_magnetization_normalized_vol": [2.493695e-09], "uncorrected_energy_per_atom": [-12.66721], "universal_anisotropy": [0.78], "volume": [160.4045], "equilibrium_reaction_energy_per_atom": [-0.02060066]}