{"includesElement": ["", "Ga", "Nb"], "includesElement___series_id": [7, 8], "includesElement__abundance_crust": [19.0, 20.0], "includesElement__atomic_number": [31, 41], "includesElement__atomic_radius": [130.0, 145.0], "includesElement__atomic_radius_rahm": [233.0, 251.0], "includesElement__atomic_volume": [11.8, 10.8], "includesElement__atomic_weight": [69.723, 92.90637], "includesElement__covalent_radius_cordero": [122.0, 164.0], "includesElement__covalent_radius_pyykko": [124.0, 147.0], "includesElement__covalent_radius_pyykko_double": [117.0, 125.0], "includesElement__covalent_radius_pyykko_triple": [121.0, 116.0], "includesElement__density": [5.91, 8.57], "includesElement__dipole_polarizability": [50.0, 98.0], "includesElement__dipole_polarizability_unc": [3.0, 8.0], "includesElement__discovery_year": [1875, 1801], "includesElement__electron_affinity": [0.43, 0.917406], "includesElement__electronegativity_allred-rochow": [0.0003251821, 0.0001295756], "includesElement__electronegativity_cottrell-sutton": [0.2008048, 0.1380131], "includesElement__electronegativity_ghosh": [0.1723773, 0.1280782], "includesElement__electronegativity_gordy": [0.04032258, 0.01904762], "includesElement__electronegativity_mulliken": [3.214651, 3.838128], "includesElement__electronegativity_nagle": [0.3914868, 0.3708924], "includesElement__electronegativity_pauling": [1.81, 1.6], "includesElement__electronegativity_sanderson": [0.720541, 0.5561695], "includesElement__en_ghosh": [0.1723773, 0.1280782], "includesElement__en_pauling": [1.81, 1.6], "includesElement__evaporation_heat": [270.3, 680.0], "includesElement__fusion_heat": [5.59, 26.8], "includesElement__glawe_number": [79, 53], "includesElement__group_id": [13, 5], "includesElement__heat_of_formation": [271.96, 733.0], "includesElement__is_radioactive": [false], "includesElement__lattice_constant": [4.51, 3.3], "includesElement__mendeleev_number": [83, 48], "includesElement__molar_heat_capacity": [26.03, 24.6], "includesElement__period": [4, 5], "includesElement__pettifor_number": [81, 52], "includesElement__specific_heat_capacity": [0.373, 0.265], "includesElement__vdw_radius": [187.0, 218.0], "includesElement__vdw_radius_alvarez": [232.0, 256.0], "includesElement__vdw_radius_mm3": [246.0, 243.0], "includesElement__vdw_radius_uff": [438.3, 316.5], "includesElement__abundance_sea": [3e-05, 1e-05], "includesElement__atomic_weight_uncertainty": [0.001, 2e-05], "includesElement__c6_gb": [456.0, 1140.0], "includesElement__electronegativity_allen": [10.39, 8.34], "includesElement__en_allen": [10.39, 8.34], "includesElement__metallic_radius": [125.0, 134.0], "includesElement__metallic_radius_c12": [140.0, 146.0], "includesElement__thermal_conductivity": [28.1, 53.7], "includesElement__vdw_radius_batsanov": [210.0, 215.0], "includesElement__c6": [498.0], "includesElement__vdw_radius_dreiding": [439.0], "includesElement__vdw_radius_bondi": [187.0], "includesElement__is_monoisotopic": [true], "formula": ["Ga8Nb10"], "spacegroup": ["193"], "thermalConductivity": [5.94737], "icsd": ["103837"], "band_gap": [0.0], "density": [8.214409], "density_atomic": [16.69809], "deprecated": [false], "efermi": [4.889311], "energy_above_hull": [0.02105253], "energy_per_atom": [-19.24467], "formation_energy_per_atom": [-0.4178372], "is_gap_direct": [false], "is_magnetic": [false], "is_metal": [true], "is_stable": [false], "nelements": [2], "nsites": [18], "num_magnetic_sites": [0], "num_unique_magnetic_sites": [0], "theoretical": [false], "total_magnetization": [1e-07], "total_magnetization_normalized_formula_units": [5e-08], "total_magnetization_normalized_vol": [3.327061e-10], "uncorrected_energy_per_atom": [-19.24467], "volume": [300.5656]}