{"includesElement": ["", "Zn", "Se"], "includesElement___series_id": [8, 1], "includesElement__abundance_crust": [70.0, 0.05], "includesElement__atomic_number": [30, 34], "includesElement__atomic_radius": [135.0, 115.0], "includesElement__atomic_radius_rahm": [222.0, 224.0], "includesElement__atomic_volume": [9.2, 16.5], "includesElement__atomic_weight": [65.38, 78.971], "includesElement__covalent_radius_cordero": [122.0, 120.0], "includesElement__covalent_radius_pyykko": [118.0, 116.0], "includesElement__covalent_radius_pyykko_double": [120.0, 107.0], "includesElement__density": [7.134, 4.809], "includesElement__dipole_polarizability": [38.67, 28.9], "includesElement__dipole_polarizability_unc": [0.3, 1.0], "includesElement__electronegativity_allred-rochow": [0.0003124102, 0.0005164982], "includesElement__electronegativity_cottrell-sutton": [0.1920011, 0.2447729], "includesElement__electronegativity_ghosh": [0.1551518, 0.2240328], "includesElement__electronegativity_gordy": [0.03686441, 0.05991379], "includesElement__electronegativity_mulliken": [4.6971, 5.886531], "includesElement__electronegativity_nagle": [0.6770213, 0.592131], "includesElement__electronegativity_pauling": [1.65, 2.55], "includesElement__electronegativity_sanderson": [0.8100877, 0.9659121], "includesElement__en_ghosh": [0.1551518, 0.2240328], "includesElement__en_pauling": [1.65, 2.55], "includesElement__evaporation_heat": [114.8, 59.7], "includesElement__fusion_heat": [7.28, 5.23], "includesElement__glawe_number": [74, 95], "includesElement__group_id": [12, 16], "includesElement__heat_of_formation": [130.4, 227.2], "includesElement__is_radioactive": [false], "includesElement__lattice_constant": [2.66, 4.36], "includesElement__mendeleev_number": [77, 101], "includesElement__molar_heat_capacity": [25.39, 25.363], "includesElement__period": [4], "includesElement__pettifor_number": [76, 93], "includesElement__specific_heat_capacity": [0.388, 0.321], "includesElement__vdw_radius": [201.0, 190.0], "includesElement__vdw_radius_alvarez": [239.0, 182.0], "includesElement__vdw_radius_mm3": [229.0], "includesElement__vdw_radius_uff": [276.3, 420.5], "includesElement__abundance_sea": [0.0049, 0.0002], "includesElement__atomic_weight_uncertainty": [0.02, 0.008], "includesElement__c6_gb": [276.0, 233.0], "includesElement__covalent_radius_bragg": [132.0, 117.0], "includesElement__electronegativity_allen": [9.395, 14.34], "includesElement__en_allen": [9.395, 14.34], "includesElement__metallic_radius": [121.0, 117.0], "includesElement__metallic_radius_c12": [134.0, 140.0], "includesElement__thermal_conductivity": [116.0, 0.52], "includesElement__vdw_radius_batsanov": [210.0, 190.0], "includesElement__c6": [284.0, 210.0], "includesElement__gas_basicity": [586.0], "includesElement__proton_affinity": [608.6], "includesElement__covalent_radius_pyykko_triple": [107.0], "includesElement__discovery_year": [1818], "includesElement__electron_affinity": [2.02067], "includesElement__vdw_radius_dreiding": [403.0], "includesElement__vdw_radius_bondi": [190.0], "formula": ["Se1Zn1", "SeZn"], "mp_id": ["mp-1190"], "spacegroup": ["216"], "thermalConductivity": [5.4493, 20.13531, 21.30624], "icsd": ["162755"], "band_gap": [1.1663], "density": [5.274845], "density_atomic": [22.72392], "deprecated": [false], "efermi": [1.321407], "energy_above_hull": [0.0], "energy_per_atom": [-3.329389], "formation_energy_per_atom": [-0.951561], "homogeneous_poisson": [0.292], "is_gap_direct": [true], "is_magnetic": [false], "is_metal": [false], "is_stable": [true], "nelements": [2], "nsites": [2], "num_magnetic_sites": [0], "num_unique_magnetic_sites": [0], "theoretical": [false], "total_magnetization": [0.0], "total_magnetization_normalized_formula_units": [0.0], "total_magnetization_normalized_vol": [0.0], "uncorrected_energy_per_atom": [-12.4561], "universal_anisotropy": [0.769], "volume": [45.44785], "cbm": [2.4509], "e_electronic": [7.32194], "e_ionic": [3.392992], "e_total": [10.71493], "equilibrium_reaction_energy_per_atom": [-0.4684398], "n": [2.705908], "vbm": [1.2846], "e_ij_max": [0.05709]}