{"includesElement": ["", "Be", "S"], "includesElement___series_id": [4, 1], "includesElement__abundance_crust": [2.8, 350.0], "includesElement__atomic_number": [4, 16], "includesElement__atomic_radius": [105.0, 100.0], "includesElement__atomic_radius_rahm": [219.0, 214.0], "includesElement__atomic_volume": [5.0, 15.5], "includesElement__atomic_weight": [9.012183, 32.06], "includesElement__covalent_radius_cordero": [96.0, 105.0], "includesElement__covalent_radius_pyykko": [102.0, 103.0], "includesElement__covalent_radius_pyykko_double": [90.0, 94.0], "includesElement__covalent_radius_pyykko_triple": [85.0, 95.0], "includesElement__density": [1.85, 2.07], "includesElement__dipole_polarizability": [37.74, 19.4], "includesElement__dipole_polarizability_unc": [0.03, 0.1], "includesElement__discovery_year": [1798], "includesElement__electron_affinity": [-2.4, 2.077104], "includesElement__electronegativity_allred-rochow": [0.0001874279, 0.0005137148], "includesElement__electronegativity_cottrell-sutton": [0.1382666, 0.2300274], "includesElement__electronegativity_ghosh": [0.144986, 0.23596], "includesElement__electronegativity_gordy": [0.01911765, 0.05291262], "includesElement__electronegativity_mulliken": [3.461349, 6.218557], "includesElement__electronegativity_nagle": [0.3756148, 0.6762644], "includesElement__electronegativity_pauling": [1.57, 2.58], "includesElement__electronegativity_sanderson": [0.1268473, 0.6397251], "includesElement__en_ghosh": [0.144986, 0.23596], "includesElement__en_pauling": [1.57, 2.58], "includesElement__evaporation_heat": [309.0, 10.5], "includesElement__fusion_heat": [12.21, 1.23], "includesElement__glawe_number": [77, 96], "includesElement__group_id": [2, 16], "includesElement__heat_of_formation": [324.0, 277.17], "includesElement__is_radioactive": [false], "includesElement__lattice_constant": [2.29, 10.47], "includesElement__mendeleev_number": [75, 100], "includesElement__molar_heat_capacity": [16.443, 22.7], "includesElement__period": [2, 3], "includesElement__pettifor_number": [77, 94], "includesElement__specific_heat_capacity": [1.825, 0.708], "includesElement__vdw_radius": [153.0, 180.0], "includesElement__vdw_radius_alvarez": [198.0, 189.0], "includesElement__vdw_radius_mm3": [223.0, 215.0], "includesElement__vdw_radius_uff": [274.5, 403.5], "includesElement__abundance_sea": [5.6e-06, 905.0], "includesElement__atomic_weight_uncertainty": [5e-07], "includesElement__c6_gb": [214.0, 140.0], "includesElement__covalent_radius_bragg": [115.0, 102.0], "includesElement__electronegativity_allen": [9.323, 15.31], "includesElement__en_allen": [9.323, 15.31], "includesElement__metallic_radius": [89.0, 104.0], "includesElement__metallic_radius_c12": [112.0, 127.0], "includesElement__thermal_conductivity": [201.0, 0.27], "includesElement__vdw_radius_batsanov": [190.0, 180.0], "includesElement__c6": [227.0, 134.0], "includesElement__is_monoisotopic": [true], "includesElement__vdw_radius_truhlar": [153.0], "includesElement__vdw_radius_dreiding": [403.0], "includesElement__gas_basicity": [640.2], "includesElement__proton_affinity": [664.3], "includesElement__vdw_radius_bondi": [180.0], "includesElement__vdw_radius_rt": [181.0], "formula": ["Be1S1", "BeS"], "mp_id": ["mp-422"], "spacegroup": ["216"], "thermalConductivity": [35.0764, 190.6912, 223.3526], "icsd": ["183373"], "band_gap": [3.1453], "density": [2.361792], "density_atomic": [14.44036], "deprecated": [false], "efermi": [3.644462], "energy_above_hull": [0.0], "energy_per_atom": [-5.246138], "formation_energy_per_atom": [-1.307251], "homogeneous_poisson": [0.208], "is_gap_direct": [false], "is_magnetic": [false], "is_metal": [false], "is_stable": [true], "nelements": [2], "nsites": [2], "num_magnetic_sites": [0], "num_unique_magnetic_sites": [0], "theoretical": [false], "total_magnetization": [0.0], "total_magnetization_normalized_formula_units": [0.0], "total_magnetization_normalized_vol": [0.0], "uncorrected_energy_per_atom": [-7.399272], "universal_anisotropy": [0.364], "volume": [28.88072], "cbm": [6.596], "e_electronic": [5.257358], "e_ionic": [1.999955], "e_total": [7.257313], "equilibrium_reaction_energy_per_atom": [-1.307251], "n": [2.292893], "vbm": [3.4507], "e_ij_max": [0.1825319]}