{"includesElement": ["", "F", "Mo"], "includesElement___series_id": [6, 8], "includesElement__abundance_crust": [585.0, 1.2], "includesElement__atomic_number": [9, 42], "includesElement__atomic_radius": [50.0, 145.0], "includesElement__atomic_radius_rahm": [163.0, 244.0], "includesElement__atomic_volume": [17.1, 9.4], "includesElement__atomic_weight": [18.9984, 95.95], "includesElement__covalent_radius_cordero": [57.0, 154.0], "includesElement__covalent_radius_pyykko": [64.0, 138.0], "includesElement__covalent_radius_pyykko_double": [59.0, 121.0], "includesElement__covalent_radius_pyykko_triple": [53.0, 113.0], "includesElement__density": [0.001553, 10.2], "includesElement__dipole_polarizability": [3.74, 87.0], "includesElement__dipole_polarizability_unc": [0.08, 6.0], "includesElement__discovery_year": [1886, 1778], "includesElement__electron_affinity": [3.40119, 0.748], "includesElement__electronegativity_allred-rochow": [0.001269531, 0.0001549044], "includesElement__electronegativity_cottrell-sutton": [0.2850439, 0.1462081], "includesElement__electronegativity_ghosh": [0.344443, 0.1312672], "includesElement__electronegativity_gordy": [0.08125, 0.02137681], "includesElement__electronegativity_mulliken": [10.412, 3.920215], "includesElement__electronegativity_nagle": [1.232373, 0.4100883], "includesElement__electronegativity_pauling": [3.98, 2.16], "includesElement__electronegativity_sanderson": [1.017681, 0.685295], "includesElement__en_ghosh": [0.344443, 0.1312672], "includesElement__en_pauling": [3.98, 2.16], "includesElement__evaporation_heat": [6.54, 590.0], "includesElement__fusion_heat": [0.51, 28.0], "includesElement__glawe_number": [102, 56], "includesElement__group_id": [17, 6], "includesElement__heat_of_formation": [79.335, 658.98], "includesElement__is_radioactive": [false], "includesElement__mendeleev_number": [106, 52], "includesElement__molar_heat_capacity": [31.304, 24.06], "includesElement__period": [2, 5], "includesElement__pettifor_number": [102, 55], "includesElement__specific_heat_capacity": [0.824, 0.251], "includesElement__vdw_radius": [147.0, 217.0], "includesElement__vdw_radius_alvarez": [146.0, 245.0], "includesElement__vdw_radius_mm3": [171.0, 239.0], "includesElement__vdw_radius_uff": [336.4, 305.2], "includesElement__abundance_sea": [1.3, 0.01], "includesElement__atomic_weight_uncertainty": [6e-09, 0.01], "includesElement__c6_gb": [10.2, 1030.0], "includesElement__covalent_radius_bragg": [67.0], "includesElement__electronegativity_allen": [24.8, 8.71], "includesElement__en_allen": [24.8, 8.71], "includesElement__thermal_conductivity": [0.028], "includesElement__vdw_radius_batsanov": [150.0, 210.0], "includesElement__c6": [9.52], "includesElement__is_monoisotopic": [true], "includesElement__vdw_radius_dreiding": [347.2], "includesElement__gas_basicity": [315.1], "includesElement__proton_affinity": [340.1], "includesElement__vdw_radius_bondi": [147.0], "includesElement__vdw_radius_rt": [146.0], "includesElement__lattice_constant": [3.15], "includesElement__metallic_radius": [130.0], "includesElement__metallic_radius_c12": [139.0], "formula": ["F3Mo1"], "spacegroup": ["221"], "thermalConductivity": [5.13902], "icsd": ["30612"], "band_gap": [2.9582], "density": [3.673964], "density_atomic": [17.28071], "deprecated": [false], "efermi": [-0.7704273], "energy_above_hull": [0.05094273], "energy_per_atom": [-11.35924], "formation_energy_per_atom": [-2.498502], "is_gap_direct": [false], "is_magnetic": [true], "is_metal": [false], "is_stable": [false], "nelements": [2], "nsites": [4], "num_magnetic_sites": [1], "num_unique_magnetic_sites": [1], "theoretical": [false], "total_magnetization": [3.0], "total_magnetization_normalized_formula_units": [3.0], "total_magnetization_normalized_vol": [0.04340098], "uncorrected_energy_per_atom": [-11.35924], "volume": [69.12286], "cbm": [2.1764], "vbm": [-0.7818]}