{"includesElement": ["", "Ba", "Pt"], "includesElement___series_id": [4, 8], "includesElement__abundance_crust": [425.0, 0.005], "includesElement__atomic_number": [56, 78], "includesElement__atomic_radius": [215.0, 135.0], "includesElement__atomic_radius_rahm": [293.0, 230.0], "includesElement__atomic_volume": [39.0, 9.1], "includesElement__atomic_weight": [137.327, 195.084], "includesElement__covalent_radius_cordero": [215.0, 136.0], "includesElement__covalent_radius_pyykko": [196.0, 123.0], "includesElement__covalent_radius_pyykko_double": [161.0, 112.0], "includesElement__covalent_radius_pyykko_triple": [149.0, 110.0], "includesElement__density": [3.62, 21.5], "includesElement__dipole_polarizability": [272.0, 48.0], "includesElement__dipole_polarizability_unc": [10.0, 4.0], "includesElement__discovery_year": [1808, 1735], "includesElement__electron_affinity": [0.14462, 2.128], "includesElement__electronegativity_allred-rochow": [7.418784e-05, 0.0002346487], "includesElement__electronegativity_cottrell-sutton": [0.1205853, 0.1698876], "includesElement__electronegativity_ghosh": [0.1586786, 0.25691], "includesElement__electronegativity_gordy": [0.01454082, 0.02886179], "includesElement__electronegativity_mulliken": [2.678142, 5.543415], "includesElement__electronegativity_nagle": [0.1944556, 0.5928156], "includesElement__electronegativity_pauling": [0.89, 2.2], "includesElement__electronegativity_sanderson": [0.3032951, 1.45101], "includesElement__en_ghosh": [0.1586786, 0.25691], "includesElement__en_pauling": [0.89, 2.2], "includesElement__evaporation_heat": [142.0, 470.0], "includesElement__fusion_heat": [7.66, 21.76], "includesElement__glawe_number": [14, 64], "includesElement__group_id": [2, 10], "includesElement__heat_of_formation": [179.1, 565.7], "includesElement__is_radioactive": [false], "includesElement__lattice_constant": [5.02, 3.92], "includesElement__mendeleev_number": [9, 69], "includesElement__molar_heat_capacity": [28.07, 25.86], "includesElement__period": [6], "includesElement__pettifor_number": [14, 68], "includesElement__specific_heat_capacity": [0.204, 0.133], "includesElement__vdw_radius": [268.0, 213.0], "includesElement__vdw_radius_alvarez": [303.0, 229.0], "includesElement__vdw_radius_mm3": [307.0, 239.0], "includesElement__vdw_radius_uff": [370.3, 275.4], "includesElement__abundance_sea": [0.013], "includesElement__atomic_weight_uncertainty": [0.007, 0.009], "includesElement__c6_gb": [5540.0, 470.0], "includesElement__covalent_radius_bragg": [210.0], "includesElement__electronegativity_allen": [5.211, 10.16], "includesElement__en_allen": [5.211, 10.16], "includesElement__metallic_radius": [198.0, 130.0], "includesElement__metallic_radius_c12": [222.0, 139.0], "includesElement__vdw_radius_batsanov": [270.0, 205.0], "includesElement__vdw_radius_truhlar": [268.0], "includesElement__thermal_conductivity": [71.6], "formula": ["Ba2Pt2"], "spacegroup": ["194"], "thermalConductivity": [1.52192], "icsd": ["55492"], "band_gap": [0.0], "density": [8.877377], "density_atomic": [31.08922], "deprecated": [false], "efermi": [3.575132], "energy_above_hull": [0.0], "energy_per_atom": [-4.744016], "formation_energy_per_atom": [-0.748962], "homogeneous_poisson": [0.329], "is_gap_direct": [false], "is_magnetic": [false], "is_metal": [true], "is_stable": [true], "nelements": [2], "nsites": [4], "num_magnetic_sites": [0], "num_unique_magnetic_sites": [0], "theoretical": [false], "total_magnetization": [0.0], "total_magnetization_normalized_formula_units": [0.0], "total_magnetization_normalized_vol": [0.0], "uncorrected_energy_per_atom": [-39.81051], "universal_anisotropy": [0.334], "volume": [124.3569], "equilibrium_reaction_energy_per_atom": [-0.2043382]}