{"includesElement": ["", "Hg", "Rb"], "includesElement___series_id": [8, 3], "includesElement__abundance_crust": [0.085, 90.0], "includesElement__atomic_number": [80, 37], "includesElement__atomic_radius": [150.0, 235.0], "includesElement__atomic_radius_rahm": [229.0, 240.0], "includesElement__atomic_volume": [14.8, 55.9], "includesElement__atomic_weight": [200.592, 85.4678], "includesElement__covalent_radius_cordero": [132.0, 220.0], "includesElement__covalent_radius_pyykko": [133.0, 210.0], "includesElement__covalent_radius_pyykko_double": [142.0, 202.0], "includesElement__density": [13.5336, 1.53], "includesElement__dipole_polarizability": [33.91, 319.8], "includesElement__dipole_polarizability_unc": [0.34, 0.3], "includesElement__electronegativity_allred-rochow": [0.0002459155, 4.988662e-05], "includesElement__electronegativity_cottrell-sutton": [0.1808501, 0.1023533], "includesElement__electronegativity_ghosh": [0.169, 0.104686], "includesElement__electronegativity_gordy": [0.03270677, 0.01047619], "includesElement__electronegativity_mulliken": [5.218752, 2.331524], "includesElement__electronegativity_nagle": [0.7073231, 0.1462314], "includesElement__electronegativity_pauling": [1.9, 0.82], "includesElement__electronegativity_sanderson": [1.164789, 0.1764136], "includesElement__en_ghosh": [0.169, 0.104686], "includesElement__en_pauling": [1.9, 0.82], "includesElement__evaporation_heat": [58.5, 75.8], "includesElement__fusion_heat": [2.295, 2.2], "includesElement__glawe_number": [76, 9], "includesElement__group_id": [12, 1], "includesElement__heat_of_formation": [61.38, 80.9], "includesElement__is_radioactive": [false], "includesElement__lattice_constant": [2.99, 5.59], "includesElement__mendeleev_number": [79, 4], "includesElement__molar_heat_capacity": [27.983, 31.06], "includesElement__period": [6, 5], "includesElement__pettifor_number": [74, 9], "includesElement__specific_heat_capacity": [0.14, 0.363], "includesElement__vdw_radius": [223.0, 303.0], "includesElement__vdw_radius_alvarez": [245.0, 321.0], "includesElement__vdw_radius_mm3": [253.0, 325.0], "includesElement__vdw_radius_uff": [270.5, 411.4], "includesElement__abundance_sea": [3e-05, 0.12], "includesElement__atomic_weight_uncertainty": [0.003, 0.0003], "includesElement__c6_gb": [268.0, 4660.0], "includesElement__electronegativity_allen": [10.44, 4.177], "includesElement__en_allen": [10.44, 4.177], "includesElement__metallic_radius": [139.0, 216.0], "includesElement__metallic_radius_c12": [151.0, 248.0], "includesElement__thermal_conductivity": [8.3, 58.2], "includesElement__vdw_radius_batsanov": [205.0, 290.0], "includesElement__discovery_year": [1861], "includesElement__electron_affinity": [0.48592], "includesElement__covalent_radius_bragg": [225.0], "includesElement__c6": [4769.0], "includesElement__vdw_radius_truhlar": [303.0], "formula": ["Hg33Rb3"], "spacegroup": ["221"], "thermalConductivity": [0.0115074], "icsd": ["410567"], "band_gap": [0.0], "density": [10.69979], "density_atomic": [29.64144], "deprecated": [false], "efermi": [1.523401], "energy_above_hull": [0.0], "energy_per_atom": [-0.4533228], "formation_energy_per_atom": [-0.08774558], "is_gap_direct": [false], "is_magnetic": [false], "is_metal": [true], "is_stable": [true], "nelements": [2], "nsites": [36], "num_magnetic_sites": [0], "num_unique_magnetic_sites": [0], "theoretical": [false], "total_magnetization": [2.1e-06], "total_magnetization_normalized_formula_units": [7e-07], "total_magnetization_normalized_vol": [1.967966e-09], "uncorrected_energy_per_atom": [-46.52567], "volume": [1067.092], "equilibrium_reaction_energy_per_atom": [-0.004033656]}