{"includesElement": ["", "Ba", "O", "U"], "includesElement___series_id": [4, 1, 10], "includesElement__abundance_crust": [425.0, 461000.0, 2.7], "includesElement__atomic_number": [56, 8, 92], "includesElement__atomic_radius": [215.0, 60.0, 175.0], "includesElement__atomic_radius_rahm": [293.0, 171.0, 283.0], "includesElement__atomic_volume": [39.0, 14.0, 12.5], "includesElement__atomic_weight": [137.327, 15.999, 238.0289], "includesElement__covalent_radius_cordero": [215.0, 66.0, 196.0], "includesElement__covalent_radius_pyykko": [196.0, 63.0, 170.0], "includesElement__covalent_radius_pyykko_double": [161.0, 57.0, 134.0], "includesElement__covalent_radius_pyykko_triple": [149.0, 53.0, 118.0], "includesElement__density": [3.62, 0.001308, 19.1], "includesElement__dipole_polarizability": [272.0, 5.3, 129.0], "includesElement__dipole_polarizability_unc": [10.0, 0.2, 17.0], "includesElement__discovery_year": [1808, 1774, 1789], "includesElement__electron_affinity": [0.14462, 1.461113], "includesElement__electronegativity_allred-rochow": [7.418784e-05, 0.001146384, 0.0001038062], "includesElement__electronegativity_cottrell-sutton": [0.1205853, 0.2687419, 0.1328422], "includesElement__electronegativity_ghosh": [0.1586786, 0.304575, 0.13207], "includesElement__electronegativity_gordy": [0.01454082, 0.07222222, 0.01764706], "includesElement__electronegativity_mulliken": [2.678142, 7.539584, 3.097025], "includesElement__electronegativity_nagle": [0.1944556, 1.042218, 0.3596283], "includesElement__electronegativity_pauling": [0.89, 3.44, 1.7], "includesElement__electronegativity_sanderson": [0.3032951, 0.9416494, 0.618118], "includesElement__en_ghosh": [0.1586786, 0.304575, 0.13207], "includesElement__en_pauling": [0.89, 3.44, 1.7], "includesElement__evaporation_heat": [142.0, 417.0], "includesElement__fusion_heat": [7.66, 12.6], "includesElement__glawe_number": [14, 97, 36], "includesElement__group_id": [2, 16], "includesElement__heat_of_formation": [179.1, 249.229, 533.0], "includesElement__is_radioactive": [false, true], "includesElement__lattice_constant": [5.02, 6.83, 2.85], "includesElement__mendeleev_number": [9, 99, 20], "includesElement__molar_heat_capacity": [28.07, 29.378, 27.665], "includesElement__period": [6, 2, 7], "includesElement__pettifor_number": [14, 101, 45], "includesElement__specific_heat_capacity": [0.204, 0.918, 0.116], "includesElement__vdw_radius": [268.0, 152.0, 241.0], "includesElement__vdw_radius_alvarez": [303.0, 150.0, 271.0], "includesElement__vdw_radius_mm3": [307.0, 182.0, 252.0], "includesElement__vdw_radius_uff": [370.3, 350.0, 339.5], "includesElement__abundance_sea": [0.013, 857000.0, 0.0032], "includesElement__atomic_weight_uncertainty": [0.007, 3e-05], "includesElement__c6_gb": [5540.0, 16.7], "includesElement__covalent_radius_bragg": [210.0, 65.0], "includesElement__electronegativity_allen": [5.211, 21.36], "includesElement__en_allen": [5.211, 21.36], "includesElement__metallic_radius": [198.0], "includesElement__metallic_radius_c12": [222.0], "includesElement__vdw_radius_batsanov": [270.0, 155.0, 230.0], "includesElement__vdw_radius_truhlar": [268.0], "includesElement__thermal_conductivity": [0.027, 27.5], "includesElement__c6": [15.6], "includesElement__vdw_radius_dreiding": [340.46], "includesElement__gas_basicity": [459.6, 973.2], "includesElement__proton_affinity": [485.2, 995.2], "includesElement__vdw_radius_bondi": [152.0], "includesElement__vdw_radius_rt": [158.0], "formula": ["Ba2O14U4"], "spacegroup": ["141"], "thermalConductivity": [4.72901], "icsd": ["22206"], "band_gap": [1.8593], "density": [7.841887], "density_atomic": [15.36011], "deprecated": [false], "efermi": [3.064164], "energy_above_hull": [0.007425858], "energy_per_atom": [-9.552052], "formation_energy_per_atom": [-3.635288], "is_gap_direct": [false], "is_magnetic": [false], "is_metal": [false], "is_stable": [false], "nelements": [3], "nsites": [20], "num_magnetic_sites": [0], "num_unique_magnetic_sites": [0], "theoretical": [false], "total_magnetization": [0.0], "total_magnetization_normalized_formula_units": [0.0], "total_magnetization_normalized_vol": [0.0], "uncorrected_energy_per_atom": [-26.22795], "volume": [307.2023], "cbm": [5.0164], "vbm": [3.1571]}