{"includesElement": ["", "Ge", "C"], "includesElement___series_id": [5, 1], "includesElement__abundance_crust": [1.5, 200.0], "includesElement__atomic_number": [32, 6], "includesElement__atomic_radius": [125.0, 70.0], "includesElement__atomic_radius_rahm": [234.0, 190.0], "includesElement__atomic_volume": [13.6, 5.3], "includesElement__atomic_weight": [72.63, 12.011], "includesElement__covalent_radius_cordero": [120.0, 73.0], "includesElement__covalent_radius_pyykko": [121.0, 75.0], "includesElement__covalent_radius_pyykko_double": [111.0, 67.0], "includesElement__covalent_radius_pyykko_triple": [114.0, 60.0], "includesElement__density": [5.3234, 2.2], "includesElement__dipole_polarizability": [40.0, 11.3], "includesElement__dipole_polarizability_unc": [1.0, 0.2], "includesElement__discovery_year": [1886], "includesElement__electron_affinity": [1.232712, 1.262119], "includesElement__electronegativity_allred-rochow": [0.0003859026, 0.0005777778], "includesElement__electronegativity_cottrell-sutton": [0.2160884, 0.2081666], "includesElement__electronegativity_ghosh": [0.1895892, 0.224776], "includesElement__electronegativity_gordy": [0.04669421, 0.04333333], "includesElement__electronegativity_mulliken": [4.566073, 6.261208], "includesElement__electronegativity_nagle": [0.4641589, 0.7073926], "includesElement__electronegativity_pauling": [2.01, 2.55], "includesElement__electronegativity_sanderson": [0.8001471, 0.427525], "includesElement__en_ghosh": [0.1895892, 0.224776], "includesElement__en_pauling": [2.01, 2.55], "includesElement__evaporation_heat": [328.0], "includesElement__fusion_heat": [36.8], "includesElement__glawe_number": [84, 87], "includesElement__group_id": [14], "includesElement__heat_of_formation": [372.0, 716.87], "includesElement__is_radioactive": [false], "includesElement__lattice_constant": [5.66, 3.57], "includesElement__mendeleev_number": [89, 87], "includesElement__molar_heat_capacity": [23.222, 8.517], "includesElement__period": [4, 2], "includesElement__pettifor_number": [84, 95], "includesElement__specific_heat_capacity": [0.32, 0.709], "includesElement__vdw_radius": [211.0, 170.0], "includesElement__vdw_radius_alvarez": [229.0, 177.0], "includesElement__vdw_radius_mm3": [244.0, 204.0], "includesElement__vdw_radius_uff": [428.0, 385.1], "includesElement__abundance_sea": [5e-05, 28.0], "includesElement__atomic_weight_uncertainty": [0.008], "includesElement__c6_gb": [365.0, 47.9], "includesElement__electronegativity_allen": [11.8, 15.05], "includesElement__en_allen": [11.8, 15.05], "includesElement__metallic_radius": [124.0], "includesElement__metallic_radius_c12": [144.0, 86.0], "includesElement__thermal_conductivity": [60.2, 1.59], "includesElement__vdw_radius_batsanov": [210.0, 170.0], "includesElement__c6": [354.0, 46.6], "includesElement__vdw_radius_dreiding": [427.0, 389.83], "includesElement__vdw_radius_truhlar": [211.0], "includesElement__covalent_radius_bragg": [77.0], "includesElement__vdw_radius_bondi": [170.0], "includesElement__vdw_radius_rt": [177.0], "formula": ["C1Ge1"], "spacegroup": ["225"], "thermalConductivity": [19.6338], "icsd": ["182364"], "band_gap": [0.0], "density": [6.659835], "density_atomic": [10.55325], "deprecated": [false], "efermi": [9.014648], "energy_above_hull": [1.271791], "energy_per_atom": [-5.654055], "formation_energy_per_atom": [1.271791], "homogeneous_poisson": [0.249], "is_gap_direct": [false], "is_magnetic": [false], "is_metal": [true], "is_stable": [false], "nelements": [2], "nsites": [2], "num_magnetic_sites": [0], "num_unique_magnetic_sites": [0], "theoretical": [true], "total_magnetization": [0.0004029], "total_magnetization_normalized_formula_units": [0.0004029], "total_magnetization_normalized_vol": [1.908891e-05], "uncorrected_energy_per_atom": [-5.654055], "universal_anisotropy": [0.083], "volume": [21.1065]}