{"includesElement": ["", "Bi", "In"], "includesElement___series_id": [7], "includesElement__abundance_crust": [0.0085, 0.25], "includesElement__atomic_number": [83, 49], "includesElement__atomic_radius": [160.0, 155.0], "includesElement__atomic_radius_rahm": [250.0, 246.0], "includesElement__atomic_volume": [21.3, 15.7], "includesElement__atomic_weight": [208.9804, 114.818], "includesElement__covalent_radius_cordero": [148.0, 142.0], "includesElement__covalent_radius_pyykko": [151.0, 142.0], "includesElement__covalent_radius_pyykko_double": [141.0, 136.0], "includesElement__covalent_radius_pyykko_triple": [135.0, 146.0], "includesElement__density": [9.79, 7.31], "includesElement__dipole_polarizability": [48.0, 65.0], "includesElement__dipole_polarizability_unc": [4.0], "includesElement__electron_affinity": [0.942362, 0.3], "includesElement__electronegativity_allred-rochow": [0.0002763037, 0.0002479667], "includesElement__electronegativity_cottrell-sutton": [0.2042593, 0.1876467], "includesElement__electronegativity_ghosh": [0.182377, 0.16423], "includesElement__electronegativity_gordy": [0.04172185, 0.03521127], "includesElement__electronegativity_mulliken": [4.113939, 3.043178], "includesElement__electronegativity_nagle": [0.470518, 0.3587038], "includesElement__electronegativity_pauling": [1.9, 1.78], "includesElement__electronegativity_sanderson": [0.8136501, 0.7172747], "includesElement__en_ghosh": [0.182377, 0.16423], "includesElement__en_pauling": [1.9, 1.78], "includesElement__evaporation_heat": [172.0, 225.1], "includesElement__fusion_heat": [11.0, 3.24], "includesElement__glawe_number": [92, 80], "includesElement__group_id": [15, 13], "includesElement__heat_of_formation": [209.6, 243.0], "includesElement__is_radioactive": [false], "includesElement__lattice_constant": [4.75, 4.59], "includesElement__mendeleev_number": [97, 84], "includesElement__molar_heat_capacity": [25.52, 26.74], "includesElement__period": [6, 5], "includesElement__pettifor_number": [87, 79], "includesElement__specific_heat_capacity": [0.122, 0.233], "includesElement__vdw_radius": [207.0, 193.0], "includesElement__vdw_radius_alvarez": [254.0, 243.0], "includesElement__vdw_radius_mm3": [266.0, 264.0], "includesElement__vdw_radius_uff": [437.0, 446.3], "includesElement__abundance_sea": [2e-05, 0.02], "includesElement__atomic_weight_uncertainty": [1e-05, 0.001], "includesElement__c6_gb": [513.0, 643.0], "includesElement__covalent_radius_bragg": [148.0], "includesElement__electronegativity_allen": [11.9, 9.793], "includesElement__en_allen": [11.9, 9.793], "includesElement__metallic_radius": [151.0, 142.0], "includesElement__metallic_radius_c12": [178.0, 158.0], "includesElement__thermal_conductivity": [7.9, 81.8], "includesElement__vdw_radius_batsanov": [230.0, 220.0], "includesElement__is_monoisotopic": [true], "includesElement__vdw_radius_truhlar": [207.0], "includesElement__discovery_year": [1863], "includesElement__c6": [779.0], "includesElement__vdw_radius_dreiding": [459.0], "includesElement__vdw_radius_bondi": [193.0], "formula": ["Bi1In1"], "spacegroup": ["216"], "thermalConductivity": [1.68229], "icsd": ["184573"], "band_gap": [0.0], "density": [6.940336], "density_atomic": [38.73587], "deprecated": [false], "efermi": [3.646265], "energy_above_hull": [0.0], "energy_per_atom": [-3.36635], "formation_energy_per_atom": [-0.06651884], "homogeneous_poisson": [0.322], "is_gap_direct": [false], "is_magnetic": [false], "is_metal": [true], "is_stable": [true], "nelements": [2], "nsites": [2], "num_magnetic_sites": [0], "num_unique_magnetic_sites": [0], "theoretical": [true], "total_magnetization": [0.0], "total_magnetization_normalized_formula_units": [0.0], "total_magnetization_normalized_vol": [0.0], "uncorrected_energy_per_atom": [-40.61202], "universal_anisotropy": [0.868], "volume": [77.47174], "equilibrium_reaction_energy_per_atom": [-0.06651884]}