{"includesElement": ["", "Sb", "Tl"], "includesElement___series_id": [5, 7], "includesElement__abundance_crust": [0.2, 0.85], "includesElement__atomic_number": [51, 81], "includesElement__atomic_radius": [145.0, 190.0], "includesElement__atomic_radius_rahm": [246.0, 242.0], "includesElement__atomic_volume": [18.4, 17.2], "includesElement__atomic_weight": [121.76, 204.38], "includesElement__covalent_radius_cordero": [139.0, 145.0], "includesElement__covalent_radius_pyykko": [140.0, 144.0], "includesElement__covalent_radius_pyykko_double": [133.0, 142.0], "includesElement__covalent_radius_pyykko_triple": [127.0, 150.0], "includesElement__density": [6.68, 11.8], "includesElement__dipole_polarizability": [43.0, 50.0], "includesElement__dipole_polarizability_unc": [2.0], "includesElement__electron_affinity": [1.046, 0.377], "includesElement__electronegativity_allred-rochow": [0.0003214286, 0.0002411265], "includesElement__electronegativity_cottrell-sutton": [0.212132, 0.186339], "includesElement__electronegativity_ghosh": [0.1918774, 0.173447], "includesElement__electronegativity_gordy": [0.045, 0.03472222], "includesElement__electronegativity_mulliken": [4.827195, 3.242643], "includesElement__electronegativity_nagle": [0.4880907, 0.3914868], "includesElement__electronegativity_pauling": [2.05, 1.8], "includesElement__electronegativity_sanderson": [0.7762722, 0.9245096], "includesElement__en_ghosh": [0.1918774, 0.173447], "includesElement__en_pauling": [2.05, 1.8], "includesElement__evaporation_heat": [195.2, 162.4], "includesElement__fusion_heat": [20.08, 4.31], "includesElement__glawe_number": [91, 81], "includesElement__group_id": [15, 13], "includesElement__heat_of_formation": [264.4, 182.2], "includesElement__is_radioactive": [false], "includesElement__lattice_constant": [4.51, 3.46], "includesElement__mendeleev_number": [96, 85], "includesElement__molar_heat_capacity": [25.23, 26.32], "includesElement__period": [5, 6], "includesElement__pettifor_number": [88, 78], "includesElement__specific_heat_capacity": [0.207, 0.129], "includesElement__vdw_radius": [206.0, 196.0], "includesElement__vdw_radius_alvarez": [247.0], "includesElement__vdw_radius_mm3": [252.0, 259.0], "includesElement__vdw_radius_uff": [442.0, 434.7], "includesElement__abundance_sea": [0.00024, 1.9e-05], "includesElement__atomic_weight_uncertainty": [0.001], "includesElement__c6_gb": [504.0, 509.0], "includesElement__covalent_radius_bragg": [140.0, 190.0], "includesElement__electronegativity_allen": [11.74], "includesElement__en_allen": [11.74], "includesElement__metallic_radius": [139.0, 144.0], "includesElement__metallic_radius_c12": [166.0, 160.0], "includesElement__thermal_conductivity": [24.43, 46.1], "includesElement__vdw_radius_batsanov": [220.0], "includesElement__c6": [492.0], "includesElement__vdw_radius_dreiding": [435.0], "includesElement__vdw_radius_truhlar": [206.0], "includesElement__discovery_year": [1861], "includesElement__vdw_radius_bondi": [196.0], "formula": ["Sb1Tl1"], "spacegroup": ["216"], "thermalConductivity": [1.47991], "icsd": ["184577"], "band_gap": [0.0], "density": [6.913923], "density_atomic": [39.16544], "deprecated": [false], "efermi": [3.883192], "energy_above_hull": [0.07102524], "energy_per_atom": [-39.38639], "formation_energy_per_atom": [0.05641575], "is_gap_direct": [false], "is_magnetic": [false], "is_metal": [true], "is_stable": [false], "nelements": [2], "nsites": [2], "num_magnetic_sites": [0], "num_unique_magnetic_sites": [0], "theoretical": [true], "total_magnetization": [0.001679], "total_magnetization_normalized_formula_units": [0.001679], "total_magnetization_normalized_vol": [2.143471e-05], "uncorrected_energy_per_atom": [-3.117235], "volume": [78.33089]}