{"includesElement": ["", "Pd", "La"], "includesElement___series_id": [8, 9], "includesElement__abundance_crust": [0.015, 39.0], "includesElement__atomic_number": [46, 57], "includesElement__atomic_radius": [140.0, 195.0], "includesElement__atomic_radius_rahm": [215.0, 284.0], "includesElement__atomic_volume": [8.9, 22.5], "includesElement__atomic_weight": [106.42, 138.9055], "includesElement__covalent_radius_cordero": [139.0, 207.0], "includesElement__covalent_radius_pyykko": [120.0, 180.0], "includesElement__covalent_radius_pyykko_double": [117.0, 139.0], "includesElement__covalent_radius_pyykko_triple": [112.0, 139.0], "includesElement__density": [12.0, 6.15], "includesElement__dipole_polarizability": [26.14, 215.0], "includesElement__dipole_polarizability_unc": [0.1, 20.0], "includesElement__discovery_year": [1803, 1839], "includesElement__electron_affinity": [0.562, 0.47], "includesElement__electronegativity_allred-rochow": [0.0004756944, 9.259259e-05], "includesElement__electronegativity_cottrell-sutton": [0.2389212, 0.1290994], "includesElement__electronegativity_ghosh": [0.1440276, 0.163142], "includesElement__electronegativity_gordy": [0.05708333, 0.01666667], "includesElement__electronegativity_mulliken": [4.44943, 3.02345], "includesElement__electronegativity_nagle": [0.7259357, 0.240747], "includesElement__electronegativity_pauling": [2.2, 1.1], "includesElement__electronegativity_sanderson": [1.124263, 0.3946505], "includesElement__en_ghosh": [0.1440276, 0.163142], "includesElement__en_pauling": [2.2, 1.1], "includesElement__evaporation_heat": [372.4, 402.0], "includesElement__fusion_heat": [17.24, 8.5], "includesElement__glawe_number": [65, 32], "includesElement__group_id": [10, 3], "includesElement__heat_of_formation": [376.6, 431.0], "includesElement__is_radioactive": [false], "includesElement__lattice_constant": [3.89, 3.75], "includesElement__mendeleev_number": [68, 13], "includesElement__molar_heat_capacity": [25.98, 27.11], "includesElement__period": [5, 6], "includesElement__pettifor_number": [69, 33], "includesElement__specific_heat_capacity": [0.246, 0.195], "includesElement__vdw_radius": [210.0, 243.0], "includesElement__vdw_radius_alvarez": [215.0, 298.0], "includesElement__vdw_radius_mm3": [237.0, 278.0], "includesElement__vdw_radius_uff": [289.9, 352.2], "includesElement__atomic_weight_uncertainty": [0.01, 7e-05], "includesElement__c6_gb": [628.0, 3730.0], "includesElement__electronegativity_allen": [9.402], "includesElement__en_allen": [9.402], "includesElement__metallic_radius": [128.0, 169.0], "includesElement__metallic_radius_c12": [137.0, 187.0], "includesElement__thermal_conductivity": [71.8, 13.4], "includesElement__vdw_radius_batsanov": [205.0, 250.0], "includesElement__gas_basicity": [673.4, 991.9], "includesElement__proton_affinity": [696.0, 1013.0], "includesElement__abundance_sea": [3.4e-06], "formula": ["La2Pd2"], "spacegroup": ["63"], "thermalConductivity": [2.22592], "icsd": ["641672"], "band_gap": [0.0], "density": [7.953377], "density_atomic": [25.61004], "deprecated": [false], "efermi": [7.57973], "energy_above_hull": [0.0], "energy_per_atom": [-27.20905], "formation_energy_per_atom": [-0.8564344], "is_gap_direct": [false], "is_magnetic": [false], "is_metal": [true], "is_stable": [true], "nelements": [2], "nsites": [4], "num_magnetic_sites": [0], "num_unique_magnetic_sites": [0], "theoretical": [false], "total_magnetization": [0.0], "total_magnetization_normalized_formula_units": [0.0], "total_magnetization_normalized_vol": [0.0], "uncorrected_energy_per_atom": [-27.20905], "volume": [102.4401], "equilibrium_reaction_energy_per_atom": [-0.07618533]}