{"includesElement": ["", "Si", "C"], "includesElement___series_id": [5, 1], "includesElement__abundance_crust": [282000.0, 200.0], "includesElement__atomic_number": [14, 6], "includesElement__atomic_radius": [110.0, 70.0], "includesElement__atomic_radius_rahm": [232.0, 190.0], "includesElement__atomic_volume": [12.1, 5.3], "includesElement__atomic_weight": [28.085, 12.011], "includesElement__covalent_radius_cordero": [111.0, 73.0], "includesElement__covalent_radius_pyykko": [116.0, 75.0], "includesElement__covalent_radius_pyykko_double": [107.0, 67.0], "includesElement__covalent_radius_pyykko_triple": [102.0, 60.0], "includesElement__density": [2.3296, 2.2], "includesElement__dipole_polarizability": [37.3, 11.3], "includesElement__dipole_polarizability_unc": [0.7, 0.2], "includesElement__discovery_year": [1824], "includesElement__electron_affinity": [1.389521, 1.262119], "includesElement__electronegativity_allred-rochow": [0.0003084126, 0.0005777778], "includesElement__electronegativity_cottrell-sutton": [0.1891451, 0.2081666], "includesElement__electronegativity_ghosh": [0.178503, 0.224776], "includesElement__electronegativity_gordy": [0.03577586, 0.04333333], "includesElement__electronegativity_mulliken": [4.770602, 6.261208], "includesElement__electronegativity_nagle": [0.4750986, 0.7073926], "includesElement__electronegativity_pauling": [1.9, 2.55], "includesElement__electronegativity_sanderson": [0.3468158, 0.427525], "includesElement__en_ghosh": [0.178503, 0.224776], "includesElement__en_pauling": [1.9, 2.55], "includesElement__evaporation_heat": [383.0], "includesElement__fusion_heat": [50.6], "includesElement__glawe_number": [85, 87], "includesElement__group_id": [14], "includesElement__heat_of_formation": [450.0, 716.87], "includesElement__is_radioactive": [false], "includesElement__lattice_constant": [5.43, 3.57], "includesElement__mendeleev_number": [88, 87], "includesElement__molar_heat_capacity": [19.99, 8.517], "includesElement__period": [3, 2], "includesElement__pettifor_number": [85, 95], "includesElement__specific_heat_capacity": [0.712, 0.709], "includesElement__vdw_radius": [210.0, 170.0], "includesElement__vdw_radius_alvarez": [219.0, 177.0], "includesElement__vdw_radius_mm3": [229.0, 204.0], "includesElement__vdw_radius_uff": [429.5, 385.1], "includesElement__abundance_sea": [2.2, 28.0], "includesElement__c6_gb": [308.0, 47.9], "includesElement__covalent_radius_bragg": [117.0, 77.0], "includesElement__electronegativity_allen": [11.33, 15.05], "includesElement__en_allen": [11.33, 15.05], "includesElement__metallic_radius": [117.0], "includesElement__metallic_radius_c12": [138.0, 86.0], "includesElement__thermal_conductivity": [149.0, 1.59], "includesElement__vdw_radius_batsanov": [210.0, 170.0], "includesElement__c6": [305.0, 46.6], "includesElement__vdw_radius_dreiding": [427.0, 389.83], "includesElement__gas_basicity": [814.1], "includesElement__proton_affinity": [837.0], "includesElement__vdw_radius_bondi": [210.0, 170.0], "includesElement__vdw_radius_rt": [177.0], "formula": ["C1Si1"], "spacegroup": ["225"], "thermalConductivity": [60.7937], "icsd": ["182362"], "band_gap": [0.0], "density": [4.008509], "density_atomic": [8.304996], "deprecated": [false], "efermi": [12.40169], "energy_above_hull": [0.7428508], "energy_per_atom": [-6.788023], "formation_energy_per_atom": [0.5389686], "homogeneous_poisson": [0.161], "is_gap_direct": [false], "is_magnetic": [false], "is_metal": [true], "is_stable": [false], "nelements": [2], "nsites": [2], "num_magnetic_sites": [0], "num_unique_magnetic_sites": [0], "theoretical": [true], "total_magnetization": [0.001676], "total_magnetization_normalized_formula_units": [0.001676], "total_magnetization_normalized_vol": [0.0001009031], "uncorrected_energy_per_atom": [-6.788023], "universal_anisotropy": [1.185], "volume": [16.60999]}