{"includesElement": ["", "Ni", "Co"], "includesElement___series_id": [8], "includesElement__abundance_crust": [84.0, 25.0], "includesElement__atomic_number": [28, 27], "includesElement__atomic_radius": [135.0], "includesElement__atomic_radius_rahm": [229.0, 233.0], "includesElement__atomic_volume": [6.6, 6.7], "includesElement__atomic_weight": [58.6934, 58.93319], "includesElement__covalent_radius_cordero": [124.0, 138.0], "includesElement__covalent_radius_pyykko": [110.0, 111.0], "includesElement__covalent_radius_pyykko_double": [101.0, 103.0], "includesElement__covalent_radius_pyykko_triple": [101.0, 96.0], "includesElement__density": [8.9, 8.86], "includesElement__dipole_polarizability": [49.0, 55.0], "includesElement__dipole_polarizability_unc": [3.0, 4.0], "includesElement__discovery_year": [1751, 1739], "includesElement__electron_affinity": [1.156, 0.6622565], "includesElement__electronegativity_allred-rochow": [0.0003347107, 0.0003165327], "includesElement__electronegativity_cottrell-sutton": [0.1918806, 0.1874437], "includesElement__electronegativity_ghosh": [0.1472068, 0.1432363], "includesElement__electronegativity_gordy": [0.03681818, 0.03513514], "includesElement__electronegativity_mulliken": [4.397939, 4.271633], "includesElement__electronegativity_nagle": [0.588755, 0.5469655], "includesElement__electronegativity_pauling": [1.91, 1.88], "includesElement__electronegativity_sanderson": [0.937704, 0.8832424], "includesElement__en_ghosh": [0.1472068, 0.1432363], "includesElement__en_pauling": [1.91, 1.88], "includesElement__evaporation_heat": [378.6, 389.1], "includesElement__fusion_heat": [17.61, 15.48], "includesElement__glawe_number": [69, 70], "includesElement__group_id": [10, 9], "includesElement__heat_of_formation": [430.1, 426.7], "includesElement__is_radioactive": [false], "includesElement__lattice_constant": [3.52, 2.51], "includesElement__mendeleev_number": [67, 63], "includesElement__molar_heat_capacity": [26.07, 24.81], "includesElement__period": [4], "includesElement__pettifor_number": [67, 64], "includesElement__specific_heat_capacity": [0.444, 0.421], "includesElement__vdw_radius": [197.0, 200.0], "includesElement__vdw_radius_alvarez": [240.0], "includesElement__vdw_radius_mm3": [222.0, 223.0], "includesElement__vdw_radius_uff": [283.4, 287.2], "includesElement__abundance_sea": [0.00056, 2e-05], "includesElement__atomic_weight_uncertainty": [0.0004, 4e-06], "includesElement__c6_gb": [393.0, 461.0], "includesElement__covalent_radius_bragg": [135.0, 137.0], "includesElement__electronegativity_allen": [11.13, 10.86], "includesElement__en_allen": [11.13, 10.86], "includesElement__metallic_radius": [115.0, 116.0], "includesElement__metallic_radius_c12": [124.0, 125.0], "includesElement__thermal_conductivity": [90.9, 100.0], "includesElement__vdw_radius_batsanov": [200.0], "includesElement__c6": [373.0, 408.0], "includesElement__gas_basicity": [714.1, 719.8], "includesElement__proton_affinity": [737.0, 742.7], "includesElement__is_monoisotopic": [true], "formula": ["Co1Ni1"], "spacegroup": ["221"], "thermalConductivity": [7.35292], "icsd": ["187983"], "band_gap": [0.0], "density": [8.876883], "density_atomic": [11.00181], "deprecated": [false], "efermi": [6.724004], "energy_above_hull": [0.1695777], "energy_per_atom": [-12.45387], "formation_energy_per_atom": [0.1541019], "homogeneous_poisson": [1.316], "is_gap_direct": [false], "is_magnetic": [true], "is_metal": [true], "is_stable": [false], "nelements": [2], "nsites": [2], "num_magnetic_sites": [2], "num_unique_magnetic_sites": [2], "theoretical": [true], "total_magnetization": [2.308664], "total_magnetization_normalized_formula_units": [2.308664], "total_magnetization_normalized_vol": [0.104922], "uncorrected_energy_per_atom": [-6.291842], "universal_anisotropy": [-5.652], "volume": [22.00362]}