{"includesElement": ["", "Pd", "Hf"], "includesElement___series_id": [8], "includesElement__abundance_crust": [0.015, 3.0], "includesElement__atomic_number": [46, 72], "includesElement__atomic_radius": [140.0, 155.0], "includesElement__atomic_radius_rahm": [215.0, 264.0], "includesElement__atomic_volume": [8.9, 13.6], "includesElement__atomic_weight": [106.42, 178.49], "includesElement__covalent_radius_cordero": [139.0, 175.0], "includesElement__covalent_radius_pyykko": [120.0, 152.0], "includesElement__covalent_radius_pyykko_double": [117.0, 128.0], "includesElement__covalent_radius_pyykko_triple": [112.0, 122.0], "includesElement__density": [12.0, 13.3], "includesElement__dipole_polarizability": [26.14, 103.0], "includesElement__dipole_polarizability_unc": [0.1, 6.0], "includesElement__discovery_year": [1803, 1923], "includesElement__electron_affinity": [0.562, 0.014], "includesElement__electronegativity_allred-rochow": [0.0004756944, 0.00013634], "includesElement__electronegativity_cottrell-sutton": [0.2389212, 0.1439572], "includesElement__electronegativity_ghosh": [0.1440276, 0.229987], "includesElement__electronegativity_gordy": [0.05708333, 0.02072368], "includesElement__electronegativity_mulliken": [4.44943, 3.419535], "includesElement__electronegativity_nagle": [0.7259357, 0.3386421], "includesElement__electronegativity_pauling": [2.2, 1.3], "includesElement__electronegativity_sanderson": [1.124263, 0.7352125], "includesElement__en_ghosh": [0.1440276, 0.229987], "includesElement__en_pauling": [2.2, 1.3], "includesElement__evaporation_heat": [372.4, 575.0], "includesElement__fusion_heat": [17.24, 25.1], "includesElement__glawe_number": [65, 50], "includesElement__group_id": [10, 4], "includesElement__heat_of_formation": [376.6, 618.4], "includesElement__is_radioactive": [false], "includesElement__lattice_constant": [3.89, 3.2], "includesElement__mendeleev_number": [68, 45], "includesElement__molar_heat_capacity": [25.98, 25.73], "includesElement__period": [5, 6], "includesElement__pettifor_number": [69, 50], "includesElement__specific_heat_capacity": [0.246, 0.144], "includesElement__vdw_radius": [210.0, 223.0], "includesElement__vdw_radius_alvarez": [215.0, 263.0], "includesElement__vdw_radius_mm3": [237.0, 253.0], "includesElement__vdw_radius_uff": [289.9, 314.1], "includesElement__atomic_weight_uncertainty": [0.01, 0.02], "includesElement__c6_gb": [628.0, 1040.0], "includesElement__electronegativity_allen": [9.402, 6.83], "includesElement__en_allen": [9.402, 6.83], "includesElement__metallic_radius": [128.0, 144.0], "includesElement__metallic_radius_c12": [137.0, 159.0], "includesElement__thermal_conductivity": [71.8, 23.0], "includesElement__vdw_radius_batsanov": [205.0, 225.0], "includesElement__gas_basicity": [673.4], "includesElement__proton_affinity": [696.0], "includesElement__abundance_sea": [7e-06], "formula": ["Hf1Pd3"], "spacegroup": ["221"], "thermalConductivity": [6.10995], "icsd": ["185649"], "band_gap": [0.0], "density": [13.12438], "density_atomic": [15.74423], "deprecated": [false], "efermi": [6.327123], "energy_above_hull": [0.01475842], "energy_per_atom": [-29.38991], "formation_energy_per_atom": [-0.8817132], "homogeneous_poisson": [0.303], "is_gap_direct": [false], "is_magnetic": [false], "is_metal": [true], "is_stable": [false], "nelements": [2], "nsites": [4], "num_magnetic_sites": [0], "num_unique_magnetic_sites": [0], "theoretical": [true], "total_magnetization": [1.2e-06], "total_magnetization_normalized_formula_units": [1.2e-06], "total_magnetization_normalized_vol": [1.90546e-08], "uncorrected_energy_per_atom": [-29.38991], "universal_anisotropy": [0.346], "volume": [62.97692]}