{"includesElement": ["", "Os", "Hf"], "includesElement___series_id": [8], "includesElement__abundance_crust": [0.0015, 3.0], "includesElement__atomic_number": [76, 72], "includesElement__atomic_radius": [130.0, 155.0], "includesElement__atomic_radius_rahm": [244.0, 264.0], "includesElement__atomic_volume": [8.43, 13.6], "includesElement__atomic_weight": [190.23, 178.49], "includesElement__covalent_radius_cordero": [144.0, 175.0], "includesElement__covalent_radius_pyykko": [129.0, 152.0], "includesElement__covalent_radius_pyykko_double": [116.0, 128.0], "includesElement__covalent_radius_pyykko_triple": [109.0, 122.0], "includesElement__density": [22.5872, 13.3], "includesElement__dipole_polarizability": [57.0, 103.0], "includesElement__dipole_polarizability_unc": [3.0, 6.0], "includesElement__discovery_year": [1804, 1923], "includesElement__electron_affinity": [1.1, 0.014], "includesElement__electronegativity_allred-rochow": [0.000225347, 0.00013634], "includesElement__electronegativity_cottrell-sutton": [0.1704986, 0.1439572], "includesElement__electronegativity_ghosh": [0.2479845, 0.229987], "includesElement__electronegativity_gordy": [0.02906977, 0.02072368], "includesElement__electronegativity_mulliken": [4.769115, 3.419535], "includesElement__electronegativity_nagle": [0.5196828, 0.3386421], "includesElement__electronegativity_pauling": [2.2, 1.3], "includesElement__electronegativity_sanderson": [1.239276, 0.7352125], "includesElement__en_ghosh": [0.2479845, 0.229987], "includesElement__en_pauling": [2.2, 1.3], "includesElement__evaporation_heat": [738.0, 575.0], "includesElement__fusion_heat": [31.7, 25.1], "includesElement__glawe_number": [60, 50], "includesElement__group_id": [8, 4], "includesElement__heat_of_formation": [787.0, 618.4], "includesElement__is_radioactive": [false], "includesElement__lattice_constant": [2.74, 3.2], "includesElement__mendeleev_number": [61, 45], "includesElement__molar_heat_capacity": [24.7, 25.73], "includesElement__period": [6], "includesElement__pettifor_number": [62, 50], "includesElement__specific_heat_capacity": [0.13, 0.144], "includesElement__vdw_radius": [216.0, 223.0], "includesElement__vdw_radius_alvarez": [248.0, 263.0], "includesElement__vdw_radius_mm3": [235.0, 253.0], "includesElement__vdw_radius_uff": [312.0, 314.1], "includesElement__atomic_weight_uncertainty": [0.03, 0.02], "includesElement__c6_gb": [584.0, 1040.0], "includesElement__electronegativity_allen": [9.78, 6.83], "includesElement__en_allen": [9.78, 6.83], "includesElement__metallic_radius": [126.0, 144.0], "includesElement__metallic_radius_c12": [135.0, 159.0], "includesElement__vdw_radius_batsanov": [200.0, 225.0], "includesElement__abundance_sea": [7e-06], "includesElement__thermal_conductivity": [23.0], "formula": ["Hf1Os3"], "spacegroup": ["221"], "thermalConductivity": [9.16338], "icsd": ["185650"], "band_gap": [0.0], "density": [19.82876], "density_atomic": [15.68482], "deprecated": [false], "efermi": [7.397537], "energy_above_hull": [0.259099], "energy_per_atom": [-51.19063], "formation_energy_per_atom": [-0.1638579], "homogeneous_poisson": [0.337], "is_gap_direct": [false], "is_magnetic": [false], "is_metal": [true], "is_stable": [false], "nelements": [2], "nsites": [4], "num_magnetic_sites": [0], "num_unique_magnetic_sites": [0], "theoretical": [true], "total_magnetization": [0.0065515], "total_magnetization_normalized_formula_units": [0.0065515], "total_magnetization_normalized_vol": [0.0001044242], "uncorrected_energy_per_atom": [-11.00513], "universal_anisotropy": [0.641], "volume": [62.7393]}