{"includesElement": ["", "Hf", "Ru"], "includesElement___series_id": [8], "includesElement__abundance_crust": [3.0, 0.001], "includesElement__atomic_number": [72, 44], "includesElement__atomic_radius": [155.0, 130.0], "includesElement__atomic_radius_rahm": [264.0, 237.0], "includesElement__atomic_volume": [13.6, 8.3], "includesElement__atomic_weight": [178.49, 101.07], "includesElement__covalent_radius_cordero": [175.0, 146.0], "includesElement__covalent_radius_pyykko": [152.0, 125.0], "includesElement__covalent_radius_pyykko_double": [128.0, 114.0], "includesElement__covalent_radius_pyykko_triple": [122.0, 103.0], "includesElement__density": [13.3, 12.1], "includesElement__dipole_polarizability": [103.0, 72.0], "includesElement__dipole_polarizability_unc": [6.0, 10.0], "includesElement__discovery_year": [1923, 1844], "includesElement__electron_affinity": [0.014, 1.05], "includesElement__electronegativity_allred-rochow": [0.00013634, 0.000208], "includesElement__electronegativity_cottrell-sutton": [0.1439572, 0.1612452], "includesElement__electronegativity_ghosh": [0.229987, 0.1376494], "includesElement__electronegativity_gordy": [0.02072368, 0.026], "includesElement__electronegativity_mulliken": [3.419535, 4.20525], "includesElement__electronegativity_nagle": [0.3386421, 0.4807499], "includesElement__electronegativity_pauling": [1.3, 2.2], "includesElement__electronegativity_sanderson": [0.7352125, 0.9579373], "includesElement__en_ghosh": [0.229987, 0.1376494], "includesElement__en_pauling": [1.3, 2.2], "includesElement__evaporation_heat": [575.0], "includesElement__fusion_heat": [25.1, 25.5], "includesElement__glawe_number": [50, 61], "includesElement__group_id": [4, 8], "includesElement__heat_of_formation": [618.4, 650.6], "includesElement__is_radioactive": [false], "includesElement__lattice_constant": [3.2, 2.7], "includesElement__mendeleev_number": [45, 60], "includesElement__molar_heat_capacity": [25.73, 24.06], "includesElement__period": [6, 5], "includesElement__pettifor_number": [50, 63], "includesElement__specific_heat_capacity": [0.144, 0.238], "includesElement__vdw_radius": [223.0, 213.0], "includesElement__vdw_radius_alvarez": [263.0, 246.0], "includesElement__vdw_radius_mm3": [253.0, 234.0], "includesElement__vdw_radius_uff": [314.1, 296.3], "includesElement__abundance_sea": [7e-06, 7e-07], "includesElement__atomic_weight_uncertainty": [0.02], "includesElement__c6_gb": [1040.0, 809.0], "includesElement__electronegativity_allen": [6.83, 9.1], "includesElement__en_allen": [6.83, 9.1], "includesElement__metallic_radius": [144.0, 125.0], "includesElement__metallic_radius_c12": [159.0, 134.0], "includesElement__thermal_conductivity": [23.0, 117.0], "includesElement__vdw_radius_batsanov": [225.0, 205.0], "includesElement__gas_basicity": [751.4], "includesElement__proton_affinity": [774.0], "formula": ["Hf1Ru3"], "spacegroup": ["221"], "thermalConductivity": [12.5399], "icsd": ["185647"], "band_gap": [0.0], "density": [12.92206], "density_atomic": [15.47512], "deprecated": [false], "efermi": [7.21311], "energy_above_hull": [0.1901337], "energy_per_atom": [-30.61729], "formation_energy_per_atom": [-0.2610354], "homogeneous_poisson": [0.337], "is_gap_direct": [false], "is_magnetic": [true], "is_metal": [true], "is_stable": [false], "nelements": [2], "nsites": [4], "num_magnetic_sites": [1], "num_unique_magnetic_sites": [1], "theoretical": [true], "total_magnetization": [0.1270146], "total_magnetization_normalized_formula_units": [0.1270146], "total_magnetization_normalized_vol": [0.002051916], "uncorrected_energy_per_atom": [-9.669425], "universal_anisotropy": [0.862], "volume": [61.90049]}