{"includesElement": ["", "Bi", "B"], "includesElement___series_id": [7, 5], "includesElement__abundance_crust": [0.0085, 10.0], "includesElement__atomic_number": [83, 5], "includesElement__atomic_radius": [160.0, 85.0], "includesElement__atomic_radius_rahm": [250.0, 205.0], "includesElement__atomic_volume": [21.3, 4.6], "includesElement__atomic_weight": [208.9804, 10.81], "includesElement__covalent_radius_cordero": [148.0, 84.0], "includesElement__covalent_radius_pyykko": [151.0, 85.0], "includesElement__covalent_radius_pyykko_double": [141.0, 78.0], "includesElement__covalent_radius_pyykko_triple": [135.0, 73.0], "includesElement__density": [9.79, 2.34], "includesElement__dipole_polarizability": [48.0, 20.5], "includesElement__dipole_polarizability_unc": [4.0, 0.1], "includesElement__electron_affinity": [0.942362, 0.279723], "includesElement__electronegativity_allred-rochow": [0.0002763037, 0.0003598616], "includesElement__electronegativity_cottrell-sutton": [0.2042593, 0.1748949], "includesElement__electronegativity_ghosh": [0.182377, 0.184886], "includesElement__electronegativity_gordy": [0.04172185, 0.03058824], "includesElement__electronegativity_mulliken": [4.113939, 4.288871], "includesElement__electronegativity_nagle": [0.470518, 0.5269739], "includesElement__electronegativity_pauling": [1.9, 2.04], "includesElement__electronegativity_sanderson": [0.8136501, 0.2546274], "includesElement__en_ghosh": [0.182377, 0.184886], "includesElement__en_pauling": [1.9, 2.04], "includesElement__evaporation_heat": [172.0, 504.5], "includesElement__fusion_heat": [11.0, 23.6], "includesElement__glawe_number": [92, 86], "includesElement__group_id": [15, 13], "includesElement__heat_of_formation": [209.6, 565.0], "includesElement__is_radioactive": [false], "includesElement__lattice_constant": [4.75, 8.73], "includesElement__mendeleev_number": [97, 81], "includesElement__molar_heat_capacity": [25.52, 11.087], "includesElement__period": [6, 2], "includesElement__pettifor_number": [87, 86], "includesElement__specific_heat_capacity": [0.122, 1.026], "includesElement__vdw_radius": [207.0, 192.0], "includesElement__vdw_radius_alvarez": [254.0, 191.0], "includesElement__vdw_radius_mm3": [266.0, 215.0], "includesElement__vdw_radius_uff": [437.0, 408.3], "includesElement__abundance_sea": [2e-05, 4.44], "includesElement__atomic_weight_uncertainty": [1e-05], "includesElement__c6_gb": [513.0, 99.2], "includesElement__covalent_radius_bragg": [148.0], "includesElement__electronegativity_allen": [11.9, 12.13], "includesElement__en_allen": [11.9, 12.13], "includesElement__metallic_radius": [151.0, 80.0], "includesElement__metallic_radius_c12": [178.0, 98.0], "includesElement__thermal_conductivity": [7.9, 27.4], "includesElement__vdw_radius_batsanov": [230.0, 180.0], "includesElement__is_monoisotopic": [true], "includesElement__vdw_radius_truhlar": [207.0, 192.0], "includesElement__discovery_year": [1808], "includesElement__c6": [99.5], "includesElement__vdw_radius_dreiding": [402.0], "formula": ["B1Bi1"], "spacegroup": ["216"], "thermalConductivity": [11.8118], "icsd": ["184569"], "band_gap": [0.0922], "density": [8.574936], "density_atomic": [21.28134], "deprecated": [false], "efermi": [5.987586], "energy_above_hull": [0.7965305], "energy_per_atom": [-4.46341], "formation_energy_per_atom": [0.7965305], "homogeneous_poisson": [0.18], "is_gap_direct": [true], "is_magnetic": [false], "is_metal": [false], "is_stable": [false], "nelements": [2], "nsites": [2], "num_magnetic_sites": [0], "num_unique_magnetic_sites": [0], "theoretical": [true], "total_magnetization": [0.0001848], "total_magnetization_normalized_formula_units": [0.0001848], "total_magnetization_normalized_vol": [4.341832e-06], "uncorrected_energy_per_atom": [-4.46341], "universal_anisotropy": [0.285], "volume": [42.56267], "cbm": [6.0588], "vbm": [5.9666]}