{"includesElement": ["", "Pt", "Hf"], "includesElement___series_id": [8], "includesElement__abundance_crust": [0.005, 3.0], "includesElement__atomic_number": [78, 72], "includesElement__atomic_radius": [135.0, 155.0], "includesElement__atomic_radius_rahm": [230.0, 264.0], "includesElement__atomic_volume": [9.1, 13.6], "includesElement__atomic_weight": [195.084, 178.49], "includesElement__covalent_radius_cordero": [136.0, 175.0], "includesElement__covalent_radius_pyykko": [123.0, 152.0], "includesElement__covalent_radius_pyykko_double": [112.0, 128.0], "includesElement__covalent_radius_pyykko_triple": [110.0, 122.0], "includesElement__density": [21.5, 13.3], "includesElement__dipole_polarizability": [48.0, 103.0], "includesElement__dipole_polarizability_unc": [4.0, 6.0], "includesElement__discovery_year": [1735, 1923], "includesElement__electron_affinity": [2.128, 0.014], "includesElement__electronegativity_allred-rochow": [0.0002346487, 0.00013634], "includesElement__electronegativity_cottrell-sutton": [0.1698876, 0.1439572], "includesElement__electronegativity_ghosh": [0.25691, 0.229987], "includesElement__electronegativity_gordy": [0.02886179, 0.02072368], "includesElement__electronegativity_mulliken": [5.543415, 3.419535], "includesElement__electronegativity_nagle": [0.5928156, 0.3386421], "includesElement__electronegativity_pauling": [2.2, 1.3], "includesElement__electronegativity_sanderson": [1.45101, 0.7352125], "includesElement__en_ghosh": [0.25691, 0.229987], "includesElement__en_pauling": [2.2, 1.3], "includesElement__evaporation_heat": [470.0, 575.0], "includesElement__fusion_heat": [21.76, 25.1], "includesElement__glawe_number": [64, 50], "includesElement__group_id": [10, 4], "includesElement__heat_of_formation": [565.7, 618.4], "includesElement__is_radioactive": [false], "includesElement__lattice_constant": [3.92, 3.2], "includesElement__mendeleev_number": [69, 45], "includesElement__molar_heat_capacity": [25.86, 25.73], "includesElement__period": [6], "includesElement__pettifor_number": [68, 50], "includesElement__specific_heat_capacity": [0.133, 0.144], "includesElement__vdw_radius": [213.0, 223.0], "includesElement__vdw_radius_alvarez": [229.0, 263.0], "includesElement__vdw_radius_mm3": [239.0, 253.0], "includesElement__vdw_radius_uff": [275.4, 314.1], "includesElement__atomic_weight_uncertainty": [0.009, 0.02], "includesElement__c6_gb": [470.0, 1040.0], "includesElement__electronegativity_allen": [10.16, 6.83], "includesElement__en_allen": [10.16, 6.83], "includesElement__metallic_radius": [130.0, 144.0], "includesElement__metallic_radius_c12": [139.0, 159.0], "includesElement__thermal_conductivity": [71.6, 23.0], "includesElement__vdw_radius_batsanov": [205.0, 225.0], "includesElement__abundance_sea": [7e-06], "formula": ["Hf2Pt2"], "spacegroup": ["63"], "thermalConductivity": [5.40683], "icsd": ["638781"], "band_gap": [0.0], "density": [16.73678], "density_atomic": [18.53206], "deprecated": [false], "efermi": [6.567418], "energy_above_hull": [0.0], "energy_per_atom": [-49.58015], "formation_energy_per_atom": [-1.260587], "homogeneous_poisson": [0.357], "is_gap_direct": [false], "is_magnetic": [false], "is_metal": [true], "is_stable": [true], "nelements": [2], "nsites": [4], "num_magnetic_sites": [0], "num_unique_magnetic_sites": [0], "theoretical": [false], "total_magnetization": [7e-07], "total_magnetization_normalized_formula_units": [3.5e-07], "total_magnetization_normalized_vol": [9.443094e-09], "uncorrected_energy_per_atom": [-49.58015], "universal_anisotropy": [2.497], "volume": [74.12824], "equilibrium_reaction_energy_per_atom": [-0.4711503]}