{"includesElement": ["", "Fe", "Co"], "includesElement___series_id": [8], "includesElement__abundance_crust": [56300.0, 25.0], "includesElement__atomic_number": [26, 27], "includesElement__atomic_radius": [140.0, 135.0], "includesElement__atomic_radius_rahm": [237.0, 233.0], "includesElement__atomic_volume": [7.1, 6.7], "includesElement__atomic_weight": [55.845, 58.93319], "includesElement__covalent_radius_cordero": [142.0, 138.0], "includesElement__covalent_radius_pyykko": [116.0, 111.0], "includesElement__covalent_radius_pyykko_double": [109.0, 103.0], "includesElement__covalent_radius_pyykko_triple": [102.0, 96.0], "includesElement__density": [7.87, 8.86], "includesElement__dipole_polarizability": [62.0, 55.0], "includesElement__dipole_polarizability_unc": [4.0], "includesElement__electron_affinity": [0.151, 0.6622565], "includesElement__electronegativity_allred-rochow": [0.0002786861, 0.0003165327], "includesElement__electronegativity_cottrell-sutton": [0.1797987, 0.1874437], "includesElement__electronegativity_ghosh": [0.1392532, 0.1432363], "includesElement__electronegativity_gordy": [0.03232759, 0.03513514], "includesElement__electronegativity_mulliken": [4.026734, 4.271633], "includesElement__electronegativity_nagle": [0.5053195, 0.5469655], "includesElement__electronegativity_pauling": [1.83, 1.88], "includesElement__electronegativity_sanderson": [0.748727, 0.8832424], "includesElement__en_ghosh": [0.1392532, 0.1432363], "includesElement__en_pauling": [1.83, 1.88], "includesElement__evaporation_heat": [340.0, 389.1], "includesElement__fusion_heat": [13.8, 15.48], "includesElement__glawe_number": [71, 70], "includesElement__group_id": [8, 9], "includesElement__heat_of_formation": [415.5, 426.7], "includesElement__is_radioactive": [false], "includesElement__lattice_constant": [2.87, 2.51], "includesElement__mendeleev_number": [59, 63], "includesElement__molar_heat_capacity": [25.1, 24.81], "includesElement__period": [4], "includesElement__pettifor_number": [61, 64], "includesElement__specific_heat_capacity": [0.449, 0.421], "includesElement__vdw_radius": [204.0, 200.0], "includesElement__vdw_radius_alvarez": [244.0, 240.0], "includesElement__vdw_radius_mm3": [223.0], "includesElement__vdw_radius_uff": [291.2, 287.2], "includesElement__abundance_sea": [0.002, 2e-05], "includesElement__atomic_weight_uncertainty": [0.002, 4e-06], "includesElement__c6_gb": [548.0, 461.0], "includesElement__covalent_radius_bragg": [140.0, 137.0], "includesElement__electronegativity_allen": [10.64, 10.86], "includesElement__en_allen": [10.64, 10.86], "includesElement__metallic_radius": [117.0, 116.0], "includesElement__metallic_radius_c12": [126.0, 125.0], "includesElement__thermal_conductivity": [80.4, 100.0], "includesElement__vdw_radius_batsanov": [205.0, 200.0], "includesElement__c6": [482.0, 408.0], "includesElement__gas_basicity": [731.1, 719.8], "includesElement__proton_affinity": [754.0, 742.7], "includesElement__discovery_year": [1739], "includesElement__is_monoisotopic": [true], "formula": ["Co3Fe1"], "spacegroup": ["221"], "thermalConductivity": [11.433], "icsd": ["187971"], "band_gap": [0.0], "density": [8.74007], "density_atomic": [11.05012], "deprecated": [false], "efermi": [5.376564], "energy_above_hull": [0.05662513], "energy_per_atom": [-7.43863], "formation_energy_per_atom": [0.02893807], "homogeneous_poisson": [0.25], "is_gap_direct": [false], "is_magnetic": [true], "is_metal": [true], "is_stable": [false], "nelements": [2], "nsites": [4], "num_magnetic_sites": [4], "num_unique_magnetic_sites": [3], "theoretical": [true], "total_magnetization": [8.12928], "total_magnetization_normalized_formula_units": [8.12928], "total_magnetization_normalized_vol": [0.1839183], "uncorrected_energy_per_atom": [-13.54539], "universal_anisotropy": [0.406], "volume": [44.2005]}