{"includesElement": ["", "P", "Tl"], "includesElement___series_id": [1, 7], "includesElement__abundance_crust": [1050.0, 0.85], "includesElement__atomic_number": [15, 81], "includesElement__atomic_radius": [100.0, 190.0], "includesElement__atomic_radius_rahm": [223.0, 242.0], "includesElement__atomic_volume": [17.0, 17.2], "includesElement__atomic_weight": [30.97376, 204.38], "includesElement__covalent_radius_cordero": [107.0, 145.0], "includesElement__covalent_radius_pyykko": [111.0, 144.0], "includesElement__covalent_radius_pyykko_double": [102.0, 142.0], "includesElement__covalent_radius_pyykko_triple": [94.0, 150.0], "includesElement__density": [1.823, 11.8], "includesElement__dipole_polarizability": [25.0, 50.0], "includesElement__dipole_polarizability_unc": [1.0, 2.0], "includesElement__discovery_year": [1669, 1861], "includesElement__electron_affinity": [0.746607, 0.377], "includesElement__electronegativity_allred-rochow": [0.0003895788, 0.0002411265], "includesElement__electronegativity_cottrell-sutton": [0.2079501, 0.186339], "includesElement__electronegativity_ghosh": [0.206931, 0.173447], "includesElement__electronegativity_gordy": [0.04324324, 0.03472222], "includesElement__electronegativity_mulliken": [5.616646, 3.242643], "includesElement__electronegativity_nagle": [0.5848035, 0.3914868], "includesElement__electronegativity_pauling": [2.19, 1.8], "includesElement__electronegativity_sanderson": [0.4510269, 0.9245096], "includesElement__en_ghosh": [0.206931, 0.173447], "includesElement__en_pauling": [2.19, 1.8], "includesElement__evaporation_heat": [49.8, 162.4], "includesElement__fusion_heat": [2.51, 4.31], "includesElement__glawe_number": [89, 81], "includesElement__group_id": [15, 13], "includesElement__heat_of_formation": [316.5, 182.2], "includesElement__is_radioactive": [false], "includesElement__lattice_constant": [7.17, 3.46], "includesElement__mendeleev_number": [94, 85], "includesElement__molar_heat_capacity": [23.824, 26.32], "includesElement__period": [3, 6], "includesElement__pettifor_number": [90, 78], "includesElement__specific_heat_capacity": [0.769, 0.129], "includesElement__vdw_radius": [180.0, 196.0], "includesElement__vdw_radius_alvarez": [190.0, 247.0], "includesElement__vdw_radius_mm3": [222.0, 259.0], "includesElement__vdw_radius_uff": [414.7, 434.7], "includesElement__abundance_sea": [0.06, 1.9e-05], "includesElement__atomic_weight_uncertainty": [5e-09], "includesElement__c6_gb": [187.0, 509.0], "includesElement__electronegativity_allen": [13.33], "includesElement__en_allen": [13.33], "includesElement__metallic_radius": [110.0, 144.0], "includesElement__metallic_radius_c12": [128.0, 160.0], "includesElement__vdw_radius_batsanov": [195.0, 220.0], "includesElement__c6": [185.0], "includesElement__is_monoisotopic": [true], "includesElement__vdw_radius_dreiding": [415.0], "includesElement__gas_basicity": [604.8], "includesElement__proton_affinity": [626.8], "includesElement__vdw_radius_bondi": [180.0, 196.0], "includesElement__covalent_radius_bragg": [190.0], "includesElement__thermal_conductivity": [46.1], "formula": ["P1Tl1"], "spacegroup": ["216"], "thermalConductivity": [3.16604], "icsd": ["184576"], "band_gap": [0.0], "density": [6.819964], "density_atomic": [28.65262], "deprecated": [false], "efermi": [4.19017], "energy_above_hull": [0.234727], "energy_per_atom": [-30.88256], "formation_energy_per_atom": [0.208132], "homogeneous_poisson": [0.275], "is_gap_direct": [false], "is_magnetic": [false], "is_metal": [true], "is_stable": [false], "nelements": [2], "nsites": [2], "num_magnetic_sites": [0], "num_unique_magnetic_sites": [0], "theoretical": [true], "total_magnetization": [0.0005737], "total_magnetization_normalized_formula_units": [0.0005737], "total_magnetization_normalized_vol": [1.00113e-05], "uncorrected_energy_per_atom": [-3.668528], "universal_anisotropy": [0.853], "volume": [57.30523]}