{"includesElement": ["", "As", "Tl"], "includesElement___series_id": [5, 7], "includesElement__abundance_crust": [1.8, 0.85], "includesElement__atomic_number": [33, 81], "includesElement__atomic_radius": [115.0, 190.0], "includesElement__atomic_radius_rahm": [231.0, 242.0], "includesElement__atomic_volume": [13.1, 17.2], "includesElement__atomic_weight": [74.92159, 204.38], "includesElement__covalent_radius_cordero": [119.0, 145.0], "includesElement__covalent_radius_pyykko": [121.0, 144.0], "includesElement__covalent_radius_pyykko_double": [114.0, 142.0], "includesElement__covalent_radius_pyykko_triple": [106.0, 150.0], "includesElement__density": [5.75, 11.8], "includesElement__dipole_polarizability": [30.0, 50.0], "includesElement__dipole_polarizability_unc": [1.0, 2.0], "includesElement__electron_affinity": [0.804, 0.377], "includesElement__electronegativity_allred-rochow": [0.0004302985, 0.0002411265], "includesElement__electronegativity_cottrell-sutton": [0.22818, 0.186339], "includesElement__electronegativity_ghosh": [0.2068208, 0.173447], "includesElement__electronegativity_gordy": [0.05206612, 0.03472222], "includesElement__electronegativity_mulliken": [5.2965, 3.242643], "includesElement__electronegativity_nagle": [0.5503212, 0.3914868], "includesElement__electronegativity_pauling": [2.18, 1.8], "includesElement__electronegativity_sanderson": [0.8253373, 0.9245096], "includesElement__en_ghosh": [0.2068208, 0.173447], "includesElement__en_pauling": [2.18, 1.8], "includesElement__evaporation_heat": [32.4, 162.4], "includesElement__glawe_number": [90, 81], "includesElement__group_id": [15, 13], "includesElement__heat_of_formation": [302.5, 182.2], "includesElement__is_radioactive": [false], "includesElement__lattice_constant": [4.13, 3.46], "includesElement__mendeleev_number": [95, 85], "includesElement__molar_heat_capacity": [24.64, 26.32], "includesElement__period": [4, 6], "includesElement__pettifor_number": [89, 78], "includesElement__specific_heat_capacity": [0.329, 0.129], "includesElement__vdw_radius": [185.0, 196.0], "includesElement__vdw_radius_alvarez": [188.0, 247.0], "includesElement__vdw_radius_mm3": [236.0, 259.0], "includesElement__vdw_radius_uff": [423.0, 434.7], "includesElement__abundance_sea": [0.0037, 1.9e-05], "includesElement__atomic_weight_uncertainty": [6e-06], "includesElement__c6_gb": [260.0, 509.0], "includesElement__covalent_radius_bragg": [126.0, 190.0], "includesElement__electronegativity_allen": [13.08], "includesElement__en_allen": [13.08], "includesElement__metallic_radius": [121.0, 144.0], "includesElement__metallic_radius_c12": [148.0, 160.0], "includesElement__vdw_radius_batsanov": [205.0, 220.0], "includesElement__c6": [246.0], "includesElement__is_monoisotopic": [true], "includesElement__vdw_radius_dreiding": [415.0], "includesElement__vdw_radius_bondi": [185.0, 196.0], "includesElement__discovery_year": [1861], "includesElement__fusion_heat": [4.31], "includesElement__thermal_conductivity": [46.1], "formula": ["As1Tl1"], "spacegroup": ["216"], "thermalConductivity": [2.06005], "icsd": ["184574"], "band_gap": [0.0], "density": [7.211345], "density_atomic": [32.15743], "deprecated": [false], "efermi": [3.328958], "energy_above_hull": [0.116687], "energy_per_atom": [-33.82673], "formation_energy_per_atom": [0.116687], "homogeneous_poisson": [0.292], "is_gap_direct": [false], "is_magnetic": [false], "is_metal": [true], "is_stable": [false], "nelements": [2], "nsites": [2], "num_magnetic_sites": [0], "num_unique_magnetic_sites": [0], "theoretical": [true], "total_magnetization": [0.0014354], "total_magnetization_normalized_formula_units": [0.0014354], "total_magnetization_normalized_vol": [2.231832e-05], "uncorrected_energy_per_atom": [-3.394194], "universal_anisotropy": [0.732], "volume": [64.31486]}