{"includesElement": ["", "Cr", "Te"], "includesElement___series_id": [8, 5], "includesElement__abundance_crust": [102.0, 0.001], "includesElement__atomic_number": [24, 52], "includesElement__atomic_radius": [140.0], "includesElement__atomic_radius_rahm": [233.0, 242.0], "includesElement__atomic_volume": [7.23, 20.5], "includesElement__atomic_weight": [51.9961, 127.6], "includesElement__covalent_radius_cordero": [139.0, 138.0], "includesElement__covalent_radius_pyykko": [122.0, 136.0], "includesElement__covalent_radius_pyykko_double": [111.0, 128.0], "includesElement__covalent_radius_pyykko_triple": [103.0, 121.0], "includesElement__density": [7.15, 6.232], "includesElement__dipole_polarizability": [83.0, 38.0], "includesElement__dipole_polarizability_unc": [12.0, 4.0], "includesElement__discovery_year": [1797, 1782], "includesElement__electron_affinity": [0.666, 1.970876], "includesElement__electronegativity_allred-rochow": [0.0001981994, 0.0003757569], "includesElement__electronegativity_cottrell-sutton": [0.1555003, 0.2260596], "includesElement__electronegativity_ghosh": [0.1313053, 0.2056992], "includesElement__electronegativity_gordy": [0.02418033, 0.05110294], "includesElement__electronegativity_mulliken": [3.716255, 5.490268], "includesElement__electronegativity_nagle": [0.4165729, 0.5404919], "includesElement__electronegativity_pauling": [1.66, 2.1], "includesElement__electronegativity_sanderson": [0.6017723, 0.8622506], "includesElement__en_ghosh": [0.1313053, 0.2056992], "includesElement__en_pauling": [1.66, 2.1], "includesElement__evaporation_heat": [342.0, 49.8], "includesElement__fusion_heat": [21.0, 17.91], "includesElement__glawe_number": [55, 94], "includesElement__group_id": [6, 16], "includesElement__heat_of_formation": [397.48, 196.6], "includesElement__is_radioactive": [false], "includesElement__lattice_constant": [2.88, 4.45], "includesElement__mendeleev_number": [51, 102], "includesElement__molar_heat_capacity": [23.35, 25.73], "includesElement__period": [4, 5], "includesElement__pettifor_number": [57, 92], "includesElement__specific_heat_capacity": [0.449, 0.202], "includesElement__vdw_radius": [206.0], "includesElement__vdw_radius_alvarez": [245.0, 199.0], "includesElement__vdw_radius_mm3": [225.0, 244.0], "includesElement__vdw_radius_uff": [302.3, 447.0], "includesElement__abundance_sea": [0.0003], "includesElement__atomic_weight_uncertainty": [0.0006, 0.03], "includesElement__c6_gb": [709.0, 471.0], "includesElement__covalent_radius_bragg": [140.0, 133.0], "includesElement__electronegativity_allen": [9.77, 12.76], "includesElement__en_allen": [9.77, 12.76], "includesElement__metallic_radius": [119.0, 137.0], "includesElement__metallic_radius_c12": [128.0, 160.0], "includesElement__thermal_conductivity": [93.9, 14.3], "includesElement__vdw_radius_batsanov": [205.0, 210.0], "includesElement__c6": [602.0, 445.0], "includesElement__gas_basicity": [768.4], "includesElement__proton_affinity": [791.3], "includesElement__vdw_radius_dreiding": [423.0], "includesElement__vdw_radius_bondi": [206.0], "formula": ["Cr1Te1"], "spacegroup": ["216"], "thermalConductivity": [0.0805987], "icsd": ["181056"], "band_gap": [0.0], "density": [4.90104], "density_atomic": [30.4248], "deprecated": [false], "efermi": [4.077792], "energy_above_hull": [0.300417], "energy_per_atom": [-6.485677], "formation_energy_per_atom": [-0.08750067], "homogeneous_poisson": [0.44], "is_gap_direct": [false], "is_magnetic": [true], "is_metal": [true], "is_stable": [false], "nelements": [2], "nsites": [2], "num_magnetic_sites": [1], "num_unique_magnetic_sites": [1], "theoretical": [true], "total_magnetization": [4.0], "total_magnetization_normalized_formula_units": [4.0], "total_magnetization_normalized_vol": [0.06573584], "uncorrected_energy_per_atom": [-6.274677], "universal_anisotropy": [2.023], "volume": [60.8496]}