{"includesElement": ["", "Re", "C"], "includesElement___series_id": [8, 1], "includesElement__abundance_crust": [0.0007, 200.0], "includesElement__atomic_number": [75, 6], "includesElement__atomic_radius": [135.0, 70.0], "includesElement__atomic_radius_rahm": [249.0, 190.0], "includesElement__atomic_volume": [8.85, 5.3], "includesElement__atomic_weight": [186.207, 12.011], "includesElement__covalent_radius_cordero": [151.0, 73.0], "includesElement__covalent_radius_pyykko": [131.0, 75.0], "includesElement__covalent_radius_pyykko_double": [119.0, 67.0], "includesElement__covalent_radius_pyykko_triple": [110.0, 60.0], "includesElement__density": [20.8, 2.2], "includesElement__dipole_polarizability": [62.0, 11.3], "includesElement__dipole_polarizability_unc": [3.0, 0.2], "includesElement__discovery_year": [1925], "includesElement__electron_affinity": [0.15, 1.262119], "includesElement__electronegativity_allred-rochow": [0.000209778, 0.0005777778], "includesElement__electronegativity_cottrell-sutton": [0.1657737, 0.2081666], "includesElement__electronegativity_ghosh": [0.2435164, 0.224776], "includesElement__electronegativity_gordy": [0.02748092, 0.04333333], "includesElement__electronegativity_mulliken": [3.99176, 6.261208], "includesElement__electronegativity_nagle": [0.4833208, 0.7073926], "includesElement__electronegativity_pauling": [1.9, 2.55], "includesElement__electronegativity_sanderson": [1.174592, 0.427525], "includesElement__en_ghosh": [0.2435164, 0.224776], "includesElement__en_pauling": [1.9, 2.55], "includesElement__evaporation_heat": [704.0], "includesElement__fusion_heat": [34.0], "includesElement__glawe_number": [58, 87], "includesElement__group_id": [7, 14], "includesElement__heat_of_formation": [774.0, 716.87], "includesElement__is_radioactive": [false], "includesElement__lattice_constant": [2.76, 3.57], "includesElement__mendeleev_number": [57, 87], "includesElement__molar_heat_capacity": [25.48, 8.517], "includesElement__period": [6, 2], "includesElement__pettifor_number": [59, 95], "includesElement__specific_heat_capacity": [0.137, 0.709], "includesElement__vdw_radius": [216.0, 170.0], "includesElement__vdw_radius_alvarez": [249.0, 177.0], "includesElement__vdw_radius_mm3": [237.0, 204.0], "includesElement__vdw_radius_uff": [295.4, 385.1], "includesElement__abundance_sea": [4e-06, 28.0], "includesElement__atomic_weight_uncertainty": [0.001], "includesElement__c6_gb": [663.0, 47.9], "includesElement__electronegativity_allen": [9.46, 15.05], "includesElement__en_allen": [9.46, 15.05], "includesElement__metallic_radius": [128.0], "includesElement__metallic_radius_c12": [137.0, 86.0], "includesElement__thermal_conductivity": [48.0, 1.59], "includesElement__vdw_radius_batsanov": [205.0, 170.0], "includesElement__covalent_radius_bragg": [77.0], "includesElement__c6": [46.6], "includesElement__vdw_radius_dreiding": [389.83], "includesElement__vdw_radius_bondi": [170.0], "includesElement__vdw_radius_rt": [177.0], "formula": ["C2Re1"], "spacegroup": ["123"], "thermalConductivity": [49.5945], "icsd": ["184664"], "band_gap": [0.0], "density": [12.55084], "density_atomic": [9.271423], "deprecated": [false], "efermi": [7.564126], "energy_above_hull": [0.9113397], "energy_per_atom": [-9.403837], "formation_energy_per_atom": [0.8979781], "is_gap_direct": [false], "is_magnetic": [false], "is_metal": [true], "is_stable": [false], "nelements": [2], "nsites": [3], "num_magnetic_sites": [0], "num_unique_magnetic_sites": [0], "theoretical": [true], "total_magnetization": [0.0021127], "total_magnetization_normalized_formula_units": [0.0021127], "total_magnetization_normalized_vol": [7.595741e-05], "uncorrected_energy_per_atom": [-9.403837], "volume": [27.81427]}