{"includesElement": ["", "Cd", "N"], "includesElement___series_id": [8, 1], "includesElement__abundance_crust": [0.15, 19.0], "includesElement__atomic_number": [48, 7], "includesElement__atomic_radius": [155.0, 65.0], "includesElement__atomic_radius_rahm": [238.0, 179.0], "includesElement__atomic_volume": [13.1, 17.3], "includesElement__atomic_weight": [112.414, 14.007], "includesElement__covalent_radius_cordero": [144.0, 71.0], "includesElement__covalent_radius_pyykko": [136.0, 71.0], "includesElement__covalent_radius_pyykko_double": [144.0, 60.0], "includesElement__density": [8.69, 0.001145], "includesElement__dipole_polarizability": [46.0, 7.4], "includesElement__dipole_polarizability_unc": [2.0, 0.2], "includesElement__discovery_year": [1817, 1772], "includesElement__electronegativity_allred-rochow": [0.000235186, 0.000773656], "includesElement__electronegativity_cottrell-sutton": [0.1788443, 0.2343706], "includesElement__electronegativity_ghosh": [0.1504066, 0.26493], "includesElement__electronegativity_gordy": [0.03198529, 0.05492958], "includesElement__electronegativity_mulliken": [4.496911, 6.567065], "includesElement__electronegativity_nagle": [0.6389612, 0.8774979], "includesElement__electronegativity_pauling": [1.69, 3.04], "includesElement__electronegativity_sanderson": [0.801562, 0.577482], "includesElement__en_ghosh": [0.1504066, 0.26493], "includesElement__en_pauling": [1.69, 3.04], "includesElement__evaporation_heat": [59.1], "includesElement__fusion_heat": [6.11], "includesElement__glawe_number": [75, 88], "includesElement__group_id": [12, 15], "includesElement__heat_of_formation": [111.8, 472.44], "includesElement__is_radioactive": [false], "includesElement__lattice_constant": [2.98, 4.039], "includesElement__mendeleev_number": [78, 93], "includesElement__molar_heat_capacity": [26.02, 29.124], "includesElement__period": [5, 2], "includesElement__pettifor_number": [75, 100], "includesElement__specific_heat_capacity": [0.232, 1.04], "includesElement__vdw_radius": [218.0, 155.0], "includesElement__vdw_radius_alvarez": [249.0, 166.0], "includesElement__vdw_radius_mm3": [250.0, 193.0], "includesElement__vdw_radius_uff": [284.8, 366.0], "includesElement__abundance_sea": [0.00011, 0.5], "includesElement__atomic_weight_uncertainty": [0.004], "includesElement__c6_gb": [405.0, 25.7], "includesElement__covalent_radius_bragg": [160.0, 65.0], "includesElement__electronegativity_allen": [8.995, 18.13], "includesElement__en_allen": [8.995, 18.13], "includesElement__metallic_radius": [138.0], "includesElement__metallic_radius_c12": [151.0, 53.0], "includesElement__thermal_conductivity": [96.9, 0.026], "includesElement__vdw_radius_batsanov": [220.0, 160.0], "includesElement__covalent_radius_pyykko_triple": [54.0], "includesElement__electron_affinity": [-1.4], "includesElement__c6": [24.2], "includesElement__vdw_radius_dreiding": [366.21], "includesElement__gas_basicity": [318.7], "includesElement__proton_affinity": [342.2], "includesElement__vdw_radius_bondi": [155.0], "includesElement__vdw_radius_rt": [164.0], "formula": ["Cd1N1"], "spacegroup": ["216"], "thermalConductivity": [1.32338], "icsd": ["183198"], "band_gap": [0.0], "density": [6.161305], "density_atomic": [17.03548], "deprecated": [false], "efermi": [1.041344], "energy_above_hull": [0.9419106], "energy_per_atom": [-13.67496], "formation_energy_per_atom": [0.9419106], "is_gap_direct": [false], "is_magnetic": [true], "is_metal": [true], "is_stable": [false], "nelements": [2], "nsites": [2], "num_magnetic_sites": [1], "num_unique_magnetic_sites": [1], "theoretical": [true], "total_magnetization": [0.7754751], "total_magnetization_normalized_formula_units": [0.7754751], "total_magnetization_normalized_vol": [0.02276059], "uncorrected_energy_per_atom": [-3.507282], "volume": [34.07095]}