{"includesElement": ["", "La", "Te"], "includesElement___series_id": [9, 5], "includesElement__abundance_crust": [39.0, 0.001], "includesElement__atomic_number": [57, 52], "includesElement__atomic_radius": [195.0, 140.0], "includesElement__atomic_radius_rahm": [284.0, 242.0], "includesElement__atomic_volume": [22.5, 20.5], "includesElement__atomic_weight": [138.9055, 127.6], "includesElement__covalent_radius_cordero": [207.0, 138.0], "includesElement__covalent_radius_pyykko": [180.0, 136.0], "includesElement__covalent_radius_pyykko_double": [139.0, 128.0], "includesElement__covalent_radius_pyykko_triple": [139.0, 121.0], "includesElement__density": [6.15, 6.232], "includesElement__dipole_polarizability": [215.0, 38.0], "includesElement__dipole_polarizability_unc": [20.0, 4.0], "includesElement__discovery_year": [1839, 1782], "includesElement__electron_affinity": [0.47, 1.970876], "includesElement__electronegativity_allred-rochow": [9.259259e-05, 0.0003757569], "includesElement__electronegativity_cottrell-sutton": [0.1290994, 0.2260596], "includesElement__electronegativity_ghosh": [0.163142, 0.2056992], "includesElement__electronegativity_gordy": [0.01666667, 0.05110294], "includesElement__electronegativity_mulliken": [3.02345, 5.490268], "includesElement__electronegativity_nagle": [0.240747, 0.5404919], "includesElement__electronegativity_pauling": [1.1, 2.1], "includesElement__electronegativity_sanderson": [0.3946505, 0.8622506], "includesElement__en_ghosh": [0.163142, 0.2056992], "includesElement__en_pauling": [1.1, 2.1], "includesElement__evaporation_heat": [402.0, 49.8], "includesElement__fusion_heat": [8.5, 17.91], "includesElement__glawe_number": [32, 94], "includesElement__group_id": [3, 16], "includesElement__heat_of_formation": [431.0, 196.6], "includesElement__is_radioactive": [false], "includesElement__lattice_constant": [3.75, 4.45], "includesElement__mendeleev_number": [13, 102], "includesElement__molar_heat_capacity": [27.11, 25.73], "includesElement__period": [6, 5], "includesElement__pettifor_number": [33, 92], "includesElement__specific_heat_capacity": [0.195, 0.202], "includesElement__vdw_radius": [243.0, 206.0], "includesElement__vdw_radius_alvarez": [298.0, 199.0], "includesElement__vdw_radius_mm3": [278.0, 244.0], "includesElement__vdw_radius_uff": [352.2, 447.0], "includesElement__abundance_sea": [3.4e-06], "includesElement__atomic_weight_uncertainty": [7e-05, 0.03], "includesElement__c6_gb": [3730.0, 471.0], "includesElement__metallic_radius": [169.0, 137.0], "includesElement__metallic_radius_c12": [187.0, 160.0], "includesElement__thermal_conductivity": [13.4, 14.3], "includesElement__vdw_radius_batsanov": [250.0, 210.0], "includesElement__gas_basicity": [991.9], "includesElement__proton_affinity": [1013.0], "includesElement__covalent_radius_bragg": [133.0], "includesElement__electronegativity_allen": [12.76], "includesElement__en_allen": [12.76], "includesElement__c6": [445.0], "includesElement__vdw_radius_dreiding": [423.0], "includesElement__vdw_radius_bondi": [206.0], "formula": ["La1Te1"], "spacegroup": ["221"], "thermalConductivity": [7.41475], "icsd": ["183953"], "band_gap": [0.0], "density": [7.25704], "density_atomic": [30.49058], "deprecated": [false], "efermi": [8.739478], "energy_above_hull": [0.1292905], "energy_per_atom": [-5.714931], "formation_energy_per_atom": [-1.675274], "homogeneous_poisson": [0.242], "is_gap_direct": [false], "is_magnetic": [true], "is_metal": [true], "is_stable": [false], "nelements": [2], "nsites": [2], "num_magnetic_sites": [1], "num_unique_magnetic_sites": [1], "theoretical": [true], "total_magnetization": [0.6330432], "total_magnetization_normalized_formula_units": [0.6330432], "total_magnetization_normalized_vol": [0.01038096], "uncorrected_energy_per_atom": [-5.503931], "universal_anisotropy": [0.191], "volume": [60.98117]}