{"includesElement": ["", "N", "Co"], "includesElement___series_id": [1, 8], "includesElement__abundance_crust": [19.0, 25.0], "includesElement__atomic_number": [7, 27], "includesElement__atomic_radius": [65.0, 135.0], "includesElement__atomic_radius_rahm": [179.0, 233.0], "includesElement__atomic_volume": [17.3, 6.7], "includesElement__atomic_weight": [14.007, 58.93319], "includesElement__covalent_radius_cordero": [71.0, 138.0], "includesElement__covalent_radius_pyykko": [71.0, 111.0], "includesElement__covalent_radius_pyykko_double": [60.0, 103.0], "includesElement__covalent_radius_pyykko_triple": [54.0, 96.0], "includesElement__density": [0.001145, 8.86], "includesElement__dipole_polarizability": [7.4, 55.0], "includesElement__dipole_polarizability_unc": [0.2, 4.0], "includesElement__discovery_year": [1772, 1739], "includesElement__electron_affinity": [-1.4, 0.6622565], "includesElement__electronegativity_allred-rochow": [0.000773656, 0.0003165327], "includesElement__electronegativity_cottrell-sutton": [0.2343706, 0.1874437], "includesElement__electronegativity_ghosh": [0.26493, 0.1432363], "includesElement__electronegativity_gordy": [0.05492958, 0.03513514], "includesElement__electronegativity_mulliken": [6.567065, 4.271633], "includesElement__electronegativity_nagle": [0.8774979, 0.5469655], "includesElement__electronegativity_pauling": [3.04, 1.88], "includesElement__electronegativity_sanderson": [0.577482, 0.8832424], "includesElement__en_ghosh": [0.26493, 0.1432363], "includesElement__en_pauling": [3.04, 1.88], "includesElement__glawe_number": [88, 70], "includesElement__group_id": [15, 9], "includesElement__heat_of_formation": [472.44, 426.7], "includesElement__is_radioactive": [false], "includesElement__lattice_constant": [4.039, 2.51], "includesElement__mendeleev_number": [93, 63], "includesElement__molar_heat_capacity": [29.124, 24.81], "includesElement__period": [2, 4], "includesElement__pettifor_number": [100, 64], "includesElement__specific_heat_capacity": [1.04, 0.421], "includesElement__vdw_radius": [155.0, 200.0], "includesElement__vdw_radius_alvarez": [166.0, 240.0], "includesElement__vdw_radius_mm3": [193.0, 223.0], "includesElement__vdw_radius_uff": [366.0, 287.2], "includesElement__abundance_sea": [0.5, 2e-05], "includesElement__c6_gb": [25.7, 461.0], "includesElement__covalent_radius_bragg": [65.0, 137.0], "includesElement__electronegativity_allen": [18.13, 10.86], "includesElement__en_allen": [18.13, 10.86], "includesElement__metallic_radius_c12": [53.0, 125.0], "includesElement__thermal_conductivity": [0.026, 100.0], "includesElement__vdw_radius_batsanov": [160.0, 200.0], "includesElement__c6": [24.2, 408.0], "includesElement__vdw_radius_dreiding": [366.21], "includesElement__gas_basicity": [318.7, 719.8], "includesElement__proton_affinity": [342.2, 742.7], "includesElement__vdw_radius_bondi": [155.0], "includesElement__vdw_radius_rt": [164.0], "includesElement__evaporation_heat": [389.1], "includesElement__fusion_heat": [15.48], "includesElement__atomic_weight_uncertainty": [4e-06], "includesElement__metallic_radius": [116.0], "includesElement__is_monoisotopic": [true], "formula": ["Co1N1"], "spacegroup": ["225"], "thermalConductivity": [47.798], "icsd": ["184377"], "band_gap": [0.0], "density": [7.528091], "density_atomic": [8.044506], "deprecated": [false], "efermi": [6.836369], "energy_above_hull": [0.3741603], "energy_per_atom": [-10.80733], "formation_energy_per_atom": [0.3741603], "homogeneous_poisson": [0.388], "is_gap_direct": [false], "is_magnetic": [false], "is_metal": [true], "is_stable": [false], "nelements": [2], "nsites": [2], "num_magnetic_sites": [0], "num_unique_magnetic_sites": [0], "theoretical": [true], "total_magnetization": [0.0141299], "total_magnetization_normalized_formula_units": [0.0141299], "total_magnetization_normalized_vol": [0.0008782329], "uncorrected_energy_per_atom": [-7.241629], "universal_anisotropy": [0.092], "volume": [16.08901]}