{"includesElement": ["", "N", "Pd"], "includesElement___series_id": [1, 8], "includesElement__abundance_crust": [19.0, 0.015], "includesElement__atomic_number": [7, 46], "includesElement__atomic_radius": [65.0, 140.0], "includesElement__atomic_radius_rahm": [179.0, 215.0], "includesElement__atomic_volume": [17.3, 8.9], "includesElement__atomic_weight": [14.007, 106.42], "includesElement__covalent_radius_cordero": [71.0, 139.0], "includesElement__covalent_radius_pyykko": [71.0, 120.0], "includesElement__covalent_radius_pyykko_double": [60.0, 117.0], "includesElement__covalent_radius_pyykko_triple": [54.0, 112.0], "includesElement__density": [0.001145, 12.0], "includesElement__dipole_polarizability": [7.4, 26.14], "includesElement__dipole_polarizability_unc": [0.2, 0.1], "includesElement__discovery_year": [1772, 1803], "includesElement__electron_affinity": [-1.4, 0.562], "includesElement__electronegativity_allred-rochow": [0.000773656, 0.0004756944], "includesElement__electronegativity_cottrell-sutton": [0.2343706, 0.2389212], "includesElement__electronegativity_ghosh": [0.26493, 0.1440276], "includesElement__electronegativity_gordy": [0.05492958, 0.05708333], "includesElement__electronegativity_mulliken": [6.567065, 4.44943], "includesElement__electronegativity_nagle": [0.8774979, 0.7259357], "includesElement__electronegativity_pauling": [3.04, 2.2], "includesElement__electronegativity_sanderson": [0.577482, 1.124263], "includesElement__en_ghosh": [0.26493, 0.1440276], "includesElement__en_pauling": [3.04, 2.2], "includesElement__glawe_number": [88, 65], "includesElement__group_id": [15, 10], "includesElement__heat_of_formation": [472.44, 376.6], "includesElement__is_radioactive": [false], "includesElement__lattice_constant": [4.039, 3.89], "includesElement__mendeleev_number": [93, 68], "includesElement__molar_heat_capacity": [29.124, 25.98], "includesElement__period": [2, 5], "includesElement__pettifor_number": [100, 69], "includesElement__specific_heat_capacity": [1.04, 0.246], "includesElement__vdw_radius": [155.0, 210.0], "includesElement__vdw_radius_alvarez": [166.0, 215.0], "includesElement__vdw_radius_mm3": [193.0, 237.0], "includesElement__vdw_radius_uff": [366.0, 289.9], "includesElement__abundance_sea": [0.5], "includesElement__c6_gb": [25.7, 628.0], "includesElement__covalent_radius_bragg": [65.0], "includesElement__electronegativity_allen": [18.13, 9.402], "includesElement__en_allen": [18.13, 9.402], "includesElement__metallic_radius_c12": [53.0, 137.0], "includesElement__thermal_conductivity": [0.026, 71.8], "includesElement__vdw_radius_batsanov": [160.0, 205.0], "includesElement__c6": [24.2], "includesElement__vdw_radius_dreiding": [366.21], "includesElement__gas_basicity": [318.7, 673.4], "includesElement__proton_affinity": [342.2, 696.0], "includesElement__vdw_radius_bondi": [155.0], "includesElement__vdw_radius_rt": [164.0], "includesElement__evaporation_heat": [372.4], "includesElement__fusion_heat": [17.24], "includesElement__atomic_weight_uncertainty": [0.01], "includesElement__metallic_radius": [128.0], "formula": ["N1Pd1"], "spacegroup": ["225"], "thermalConductivity": [7.1347], "icsd": ["183193"], "band_gap": [0.0], "density": [9.12272], "density_atomic": [10.96018], "deprecated": [false], "efermi": [5.202886], "energy_above_hull": [0.9524292], "energy_per_atom": [-15.09217], "formation_energy_per_atom": [0.9524292], "homogeneous_poisson": [0.383], "is_gap_direct": [false], "is_magnetic": [false], "is_metal": [true], "is_stable": [false], "nelements": [2], "nsites": [2], "num_magnetic_sites": [0], "num_unique_magnetic_sites": [0], "theoretical": [true], "total_magnetization": [0.0009757], "total_magnetization_normalized_formula_units": [0.0009757], "total_magnetization_normalized_vol": [4.451114e-05], "uncorrected_energy_per_atom": [-5.625259], "universal_anisotropy": [0.48], "volume": [21.92035]}