{"includesElement": ["", "Pd", "C"], "includesElement___series_id": [8, 1], "includesElement__abundance_crust": [0.015, 200.0], "includesElement__atomic_number": [46, 6], "includesElement__atomic_radius": [140.0, 70.0], "includesElement__atomic_radius_rahm": [215.0, 190.0], "includesElement__atomic_volume": [8.9, 5.3], "includesElement__atomic_weight": [106.42, 12.011], "includesElement__covalent_radius_cordero": [139.0, 73.0], "includesElement__covalent_radius_pyykko": [120.0, 75.0], "includesElement__covalent_radius_pyykko_double": [117.0, 67.0], "includesElement__covalent_radius_pyykko_triple": [112.0, 60.0], "includesElement__density": [12.0, 2.2], "includesElement__dipole_polarizability": [26.14, 11.3], "includesElement__dipole_polarizability_unc": [0.1, 0.2], "includesElement__discovery_year": [1803], "includesElement__electron_affinity": [0.562, 1.262119], "includesElement__electronegativity_allred-rochow": [0.0004756944, 0.0005777778], "includesElement__electronegativity_cottrell-sutton": [0.2389212, 0.2081666], "includesElement__electronegativity_ghosh": [0.1440276, 0.224776], "includesElement__electronegativity_gordy": [0.05708333, 0.04333333], "includesElement__electronegativity_mulliken": [4.44943, 6.261208], "includesElement__electronegativity_nagle": [0.7259357, 0.7073926], "includesElement__electronegativity_pauling": [2.2, 2.55], "includesElement__electronegativity_sanderson": [1.124263, 0.427525], "includesElement__en_ghosh": [0.1440276, 0.224776], "includesElement__en_pauling": [2.2, 2.55], "includesElement__evaporation_heat": [372.4], "includesElement__fusion_heat": [17.24], "includesElement__glawe_number": [65, 87], "includesElement__group_id": [10, 14], "includesElement__heat_of_formation": [376.6, 716.87], "includesElement__is_radioactive": [false], "includesElement__lattice_constant": [3.89, 3.57], "includesElement__mendeleev_number": [68, 87], "includesElement__molar_heat_capacity": [25.98, 8.517], "includesElement__period": [5, 2], "includesElement__pettifor_number": [69, 95], "includesElement__specific_heat_capacity": [0.246, 0.709], "includesElement__vdw_radius": [210.0, 170.0], "includesElement__vdw_radius_alvarez": [215.0, 177.0], "includesElement__vdw_radius_mm3": [237.0, 204.0], "includesElement__vdw_radius_uff": [289.9, 385.1], "includesElement__atomic_weight_uncertainty": [0.01], "includesElement__c6_gb": [628.0, 47.9], "includesElement__electronegativity_allen": [9.402, 15.05], "includesElement__en_allen": [9.402, 15.05], "includesElement__metallic_radius": [128.0], "includesElement__metallic_radius_c12": [137.0, 86.0], "includesElement__thermal_conductivity": [71.8, 1.59], "includesElement__vdw_radius_batsanov": [205.0, 170.0], "includesElement__gas_basicity": [673.4], "includesElement__proton_affinity": [696.0], "includesElement__abundance_sea": [28.0], "includesElement__covalent_radius_bragg": [77.0], "includesElement__c6": [46.6], "includesElement__vdw_radius_dreiding": [389.83], "includesElement__vdw_radius_bondi": [170.0], "includesElement__vdw_radius_rt": [177.0], "formula": ["C1Pd1"], "spacegroup": ["225"], "thermalConductivity": [5.43069], "icsd": ["181774"], "band_gap": [0.0], "density": [8.987201], "density_atomic": [10.94105], "deprecated": [false], "efermi": [6.57589], "energy_above_hull": [1.487263], "energy_per_atom": [-5.71701], "formation_energy_per_atom": [1.487263], "homogeneous_poisson": [0.397], "is_gap_direct": [false], "is_magnetic": [false], "is_metal": [true], "is_stable": [false], "nelements": [2], "nsites": [2], "num_magnetic_sites": [0], "num_unique_magnetic_sites": [0], "theoretical": [true], "total_magnetization": [0.0001308], "total_magnetization_normalized_formula_units": [0.0001308], "total_magnetization_normalized_vol": [5.97749e-06], "uncorrected_energy_per_atom": [-5.71701], "universal_anisotropy": [0.097], "volume": [21.8821]}