{"includesElement": ["", "Mn", "Te"], "includesElement___series_id": [8, 5], "includesElement__abundance_crust": [950.0, 0.001], "includesElement__atomic_number": [25, 52], "includesElement__atomic_radius": [140.0], "includesElement__atomic_radius_rahm": [242.0], "includesElement__atomic_volume": [7.39, 20.5], "includesElement__atomic_weight": [54.93804, 127.6], "includesElement__covalent_radius_cordero": [150.0, 138.0], "includesElement__covalent_radius_pyykko": [119.0, 136.0], "includesElement__covalent_radius_pyykko_double": [105.0, 128.0], "includesElement__covalent_radius_pyykko_triple": [103.0, 121.0], "includesElement__density": [7.3, 6.232], "includesElement__dipole_polarizability": [68.0, 38.0], "includesElement__dipole_polarizability_unc": [9.0, 4.0], "includesElement__discovery_year": [1774, 1782], "includesElement__electronegativity_allred-rochow": [0.0002542193, 0.0003757569], "includesElement__electronegativity_cottrell-sutton": [0.1739313, 0.2260596], "includesElement__electronegativity_ghosh": [0.1352844, 0.2056992], "includesElement__electronegativity_gordy": [0.0302521, 0.05110294], "includesElement__electronegativity_mulliken": [3.717009, 5.490268], "includesElement__electronegativity_nagle": [0.4686656, 0.5404919], "includesElement__electronegativity_pauling": [1.55, 2.1], "includesElement__electronegativity_sanderson": [0.6707264, 0.8622506], "includesElement__en_ghosh": [0.1352844, 0.2056992], "includesElement__en_pauling": [1.55, 2.1], "includesElement__evaporation_heat": [221.0, 49.8], "includesElement__fusion_heat": [13.4, 17.91], "includesElement__glawe_number": [72, 94], "includesElement__group_id": [7, 16], "includesElement__heat_of_formation": [283.3, 196.6], "includesElement__is_radioactive": [false], "includesElement__lattice_constant": [8.89, 4.45], "includesElement__mendeleev_number": [55, 102], "includesElement__molar_heat_capacity": [26.32, 25.73], "includesElement__period": [4, 5], "includesElement__pettifor_number": [60, 92], "includesElement__specific_heat_capacity": [0.479, 0.202], "includesElement__vdw_radius": [205.0, 206.0], "includesElement__vdw_radius_alvarez": [245.0, 199.0], "includesElement__vdw_radius_mm3": [224.0, 244.0], "includesElement__vdw_radius_uff": [296.1, 447.0], "includesElement__abundance_sea": [0.0002], "includesElement__atomic_weight_uncertainty": [3e-06, 0.03], "includesElement__c6_gb": [635.0, 471.0], "includesElement__covalent_radius_bragg": [147.0, 133.0], "includesElement__electronegativity_allen": [10.34, 12.76], "includesElement__en_allen": [10.34, 12.76], "includesElement__metallic_radius": [118.0, 137.0], "includesElement__metallic_radius_c12": [127.0, 160.0], "includesElement__vdw_radius_batsanov": [205.0, 210.0], "includesElement__c6": [552.0, 445.0], "includesElement__is_monoisotopic": [true], "includesElement__gas_basicity": [774.4], "includesElement__proton_affinity": [797.3], "includesElement__electron_affinity": [1.970876], "includesElement__thermal_conductivity": [14.3], "includesElement__vdw_radius_dreiding": [423.0], "includesElement__vdw_radius_bondi": [206.0], "formula": ["Mn1Te1"], "spacegroup": ["216"], "thermalConductivity": [1.92182], "icsd": ["181324"], "band_gap": [0.0], "density": [4.668879], "density_atomic": [32.46085], "deprecated": [false], "efermi": [3.553535], "energy_above_hull": [0.0], "energy_per_atom": [-20.66175], "formation_energy_per_atom": [-0.6114688], "homogeneous_poisson": [0.36], "is_gap_direct": [false], "is_magnetic": [true], "is_metal": [true], "is_stable": [true], "nelements": [2], "nsites": [2], "num_magnetic_sites": [1], "num_unique_magnetic_sites": [1], "theoretical": [true], "total_magnetization": [4.999997], "total_magnetization_normalized_formula_units": [4.999997], "total_magnetization_normalized_vol": [0.07701581], "uncorrected_energy_per_atom": [-20.66175], "universal_anisotropy": [0.756], "volume": [64.9217], "equilibrium_reaction_energy_per_atom": [-0.294489]}