{"includesElement": ["", "N", "Zr"], "includesElement___series_id": [1, 8], "includesElement__abundance_crust": [19.0, 165.0], "includesElement__atomic_number": [7, 40], "includesElement__atomic_radius": [65.0, 155.0], "includesElement__atomic_radius_rahm": [179.0, 269.0], "includesElement__atomic_volume": [17.3, 14.1], "includesElement__atomic_weight": [14.007, 91.224], "includesElement__covalent_radius_cordero": [71.0, 175.0], "includesElement__covalent_radius_pyykko": [71.0, 154.0], "includesElement__covalent_radius_pyykko_double": [60.0, 127.0], "includesElement__covalent_radius_pyykko_triple": [54.0, 121.0], "includesElement__density": [0.001145, 6.52], "includesElement__dipole_polarizability": [7.4, 112.0], "includesElement__dipole_polarizability_unc": [0.2, 13.0], "includesElement__discovery_year": [1772, 1789], "includesElement__electron_affinity": [-1.4, 0.426], "includesElement__electronegativity_allred-rochow": [0.000773656, 0.0001328217], "includesElement__electronegativity_cottrell-sutton": [0.2343706, 0.1430194], "includesElement__electronegativity_ghosh": [0.26493, 0.1248887], "includesElement__electronegativity_gordy": [0.05492958, 0.02045455], "includesElement__electronegativity_mulliken": [6.567065, 3.52995], "includesElement__electronegativity_nagle": [0.8774979, 0.3293169], "includesElement__electronegativity_pauling": [3.04, 1.33], "includesElement__electronegativity_sanderson": [0.577482, 0.4744467], "includesElement__en_ghosh": [0.26493, 0.1248887], "includesElement__en_pauling": [3.04, 1.33], "includesElement__glawe_number": [88, 49], "includesElement__group_id": [15, 4], "includesElement__heat_of_formation": [472.44, 610.0], "includesElement__is_radioactive": [false], "includesElement__lattice_constant": [4.039, 3.23], "includesElement__mendeleev_number": [93, 44], "includesElement__molar_heat_capacity": [29.124, 25.36], "includesElement__period": [2, 5], "includesElement__pettifor_number": [100, 49], "includesElement__specific_heat_capacity": [1.04, 0.278], "includesElement__vdw_radius": [155.0, 223.0], "includesElement__vdw_radius_alvarez": [166.0, 252.0], "includesElement__vdw_radius_mm3": [193.0, 254.0], "includesElement__vdw_radius_uff": [366.0, 312.4], "includesElement__abundance_sea": [0.5, 3e-05], "includesElement__c6_gb": [25.7, 1360.0], "includesElement__covalent_radius_bragg": [65.0], "includesElement__electronegativity_allen": [18.13, 7.808], "includesElement__en_allen": [18.13, 7.808], "includesElement__metallic_radius_c12": [53.0, 160.0], "includesElement__thermal_conductivity": [0.026, 22.7], "includesElement__vdw_radius_batsanov": [160.0, 230.0], "includesElement__c6": [24.2], "includesElement__vdw_radius_dreiding": [366.21], "includesElement__gas_basicity": [318.7], "includesElement__proton_affinity": [342.2], "includesElement__vdw_radius_bondi": [155.0], "includesElement__vdw_radius_rt": [164.0], "includesElement__evaporation_heat": [567.0], "includesElement__fusion_heat": [19.2], "includesElement__atomic_weight_uncertainty": [0.002], "includesElement__metallic_radius": [145.0], "formula": ["N1Zr1"], "spacegroup": ["216"], "thermalConductivity": [21.7905], "icsd": ["183182"], "band_gap": [0.0], "density": [5.622792], "density_atomic": [15.53852], "deprecated": [false], "efermi": [5.04596], "energy_above_hull": [0.3219558], "energy_per_atom": [-17.59282], "formation_energy_per_atom": [-1.653551], "is_gap_direct": [false], "is_magnetic": [false], "is_metal": [true], "is_stable": [false], "nelements": [2], "nsites": [2], "num_magnetic_sites": [0], "num_unique_magnetic_sites": [0], "theoretical": [true], "total_magnetization": [0.0035091], "total_magnetization_normalized_formula_units": [0.0035091], "total_magnetization_normalized_vol": [0.0001129162], "uncorrected_energy_per_atom": [-9.79979], "volume": [31.07703]}