{"includesElement": ["", "Ni", "C"], "includesElement___series_id": [8, 1], "includesElement__abundance_crust": [84.0, 200.0], "includesElement__atomic_number": [28, 6], "includesElement__atomic_radius": [135.0, 70.0], "includesElement__atomic_radius_rahm": [229.0, 190.0], "includesElement__atomic_volume": [6.6, 5.3], "includesElement__atomic_weight": [58.6934, 12.011], "includesElement__covalent_radius_cordero": [124.0, 73.0], "includesElement__covalent_radius_pyykko": [110.0, 75.0], "includesElement__covalent_radius_pyykko_double": [101.0, 67.0], "includesElement__covalent_radius_pyykko_triple": [101.0, 60.0], "includesElement__density": [8.9, 2.2], "includesElement__dipole_polarizability": [49.0, 11.3], "includesElement__dipole_polarizability_unc": [3.0, 0.2], "includesElement__discovery_year": [1751], "includesElement__electron_affinity": [1.156, 1.262119], "includesElement__electronegativity_allred-rochow": [0.0003347107, 0.0005777778], "includesElement__electronegativity_cottrell-sutton": [0.1918806, 0.2081666], "includesElement__electronegativity_ghosh": [0.1472068, 0.224776], "includesElement__electronegativity_gordy": [0.03681818, 0.04333333], "includesElement__electronegativity_mulliken": [4.397939, 6.261208], "includesElement__electronegativity_nagle": [0.588755, 0.7073926], "includesElement__electronegativity_pauling": [1.91, 2.55], "includesElement__electronegativity_sanderson": [0.937704, 0.427525], "includesElement__en_ghosh": [0.1472068, 0.224776], "includesElement__en_pauling": [1.91, 2.55], "includesElement__evaporation_heat": [378.6], "includesElement__fusion_heat": [17.61], "includesElement__glawe_number": [69, 87], "includesElement__group_id": [10, 14], "includesElement__heat_of_formation": [430.1, 716.87], "includesElement__is_radioactive": [false], "includesElement__lattice_constant": [3.52, 3.57], "includesElement__mendeleev_number": [67, 87], "includesElement__molar_heat_capacity": [26.07, 8.517], "includesElement__period": [4, 2], "includesElement__pettifor_number": [67, 95], "includesElement__specific_heat_capacity": [0.444, 0.709], "includesElement__vdw_radius": [197.0, 170.0], "includesElement__vdw_radius_alvarez": [240.0, 177.0], "includesElement__vdw_radius_mm3": [222.0, 204.0], "includesElement__vdw_radius_uff": [283.4, 385.1], "includesElement__abundance_sea": [0.00056, 28.0], "includesElement__atomic_weight_uncertainty": [0.0004], "includesElement__c6_gb": [393.0, 47.9], "includesElement__covalent_radius_bragg": [135.0, 77.0], "includesElement__electronegativity_allen": [11.13, 15.05], "includesElement__en_allen": [11.13, 15.05], "includesElement__metallic_radius": [115.0], "includesElement__metallic_radius_c12": [124.0, 86.0], "includesElement__thermal_conductivity": [90.9, 1.59], "includesElement__vdw_radius_batsanov": [200.0, 170.0], "includesElement__c6": [373.0, 46.6], "includesElement__gas_basicity": [714.1], "includesElement__proton_affinity": [737.0], "includesElement__vdw_radius_dreiding": [389.83], "includesElement__vdw_radius_bondi": [170.0], "includesElement__vdw_radius_rt": [177.0], "formula": ["C1Ni1"], "spacegroup": ["225"], "thermalConductivity": [12.2368], "icsd": ["180457"], "band_gap": [0.0], "density": [6.981599], "density_atomic": [8.408312], "deprecated": [false], "efermi": [8.887943], "energy_above_hull": [1.090464], "energy_per_atom": [-6.413937], "formation_energy_per_atom": [1.090464], "homogeneous_poisson": [0.412], "is_gap_direct": [false], "is_magnetic": [false], "is_metal": [true], "is_stable": [false], "nelements": [2], "nsites": [2], "num_magnetic_sites": [0], "num_unique_magnetic_sites": [0], "theoretical": [true], "total_magnetization": [0.0010152], "total_magnetization_normalized_formula_units": [0.0010152], "total_magnetization_normalized_vol": [6.036883e-05], "uncorrected_energy_per_atom": [-6.413937], "universal_anisotropy": [0.02], "volume": [16.81662]}