{"includesElement": ["", "O", "Cr"], "includesElement___series_id": [1, 8], "includesElement__abundance_crust": [461000.0, 102.0], "includesElement__atomic_number": [8, 24], "includesElement__atomic_radius": [60.0, 140.0], "includesElement__atomic_radius_rahm": [171.0, 233.0], "includesElement__atomic_volume": [14.0, 7.23], "includesElement__atomic_weight": [15.999, 51.9961], "includesElement__covalent_radius_cordero": [66.0, 139.0], "includesElement__covalent_radius_pyykko": [63.0, 122.0], "includesElement__covalent_radius_pyykko_double": [57.0, 111.0], "includesElement__covalent_radius_pyykko_triple": [53.0, 103.0], "includesElement__density": [0.001308, 7.15], "includesElement__dipole_polarizability": [5.3, 83.0], "includesElement__dipole_polarizability_unc": [0.2, 12.0], "includesElement__discovery_year": [1774, 1797], "includesElement__electron_affinity": [1.461113, 0.666], "includesElement__electronegativity_allred-rochow": [0.001146384, 0.0001981994], "includesElement__electronegativity_cottrell-sutton": [0.2687419, 0.1555003], "includesElement__electronegativity_ghosh": [0.304575, 0.1313053], "includesElement__electronegativity_gordy": [0.07222222, 0.02418033], "includesElement__electronegativity_mulliken": [7.539584, 3.716255], "includesElement__electronegativity_nagle": [1.042218, 0.4165729], "includesElement__electronegativity_pauling": [3.44, 1.66], "includesElement__electronegativity_sanderson": [0.9416494, 0.6017723], "includesElement__en_ghosh": [0.304575, 0.1313053], "includesElement__en_pauling": [3.44, 1.66], "includesElement__glawe_number": [97, 55], "includesElement__group_id": [16, 6], "includesElement__heat_of_formation": [249.229, 397.48], "includesElement__is_radioactive": [false], "includesElement__lattice_constant": [6.83, 2.88], "includesElement__mendeleev_number": [99, 51], "includesElement__molar_heat_capacity": [29.378, 23.35], "includesElement__period": [2, 4], "includesElement__pettifor_number": [101, 57], "includesElement__specific_heat_capacity": [0.918, 0.449], "includesElement__vdw_radius": [152.0, 206.0], "includesElement__vdw_radius_alvarez": [150.0, 245.0], "includesElement__vdw_radius_mm3": [182.0, 225.0], "includesElement__vdw_radius_uff": [350.0, 302.3], "includesElement__abundance_sea": [857000.0, 0.0003], "includesElement__c6_gb": [16.7, 709.0], "includesElement__covalent_radius_bragg": [65.0, 140.0], "includesElement__electronegativity_allen": [21.36, 9.77], "includesElement__en_allen": [21.36, 9.77], "includesElement__thermal_conductivity": [0.027, 93.9], "includesElement__vdw_radius_batsanov": [155.0, 205.0], "includesElement__c6": [15.6, 602.0], "includesElement__vdw_radius_dreiding": [340.46], "includesElement__gas_basicity": [459.6, 768.4], "includesElement__proton_affinity": [485.2, 791.3], "includesElement__vdw_radius_bondi": [152.0], "includesElement__vdw_radius_rt": [158.0], "includesElement__evaporation_heat": [342.0], "includesElement__fusion_heat": [21.0], "includesElement__atomic_weight_uncertainty": [0.0006], "includesElement__metallic_radius": [119.0], "includesElement__metallic_radius_c12": [128.0], "formula": ["Cr1O2"], "spacegroup": ["225"], "thermalConductivity": [19.0136], "icsd": ["186838"], "band_gap": [0.0], "density": [5.15305], "density_atomic": [9.022282], "deprecated": [false], "efermi": [5.186514], "energy_above_hull": [0.192745], "energy_per_atom": [-8.371279], "formation_energy_per_atom": [-1.852087], "is_gap_direct": [false], "is_magnetic": [true], "is_metal": [true], "is_stable": [false], "nelements": [2], "nsites": [3], "num_magnetic_sites": [3], "num_unique_magnetic_sites": [2], "theoretical": [true], "total_magnetization": [1.998837], "total_magnetization_normalized_formula_units": [1.998837], "total_magnetization_normalized_vol": [0.07384817], "uncorrected_energy_per_atom": [-7.246946], "volume": [27.06685]}