{"includesElement": ["", "Be", "Si"], "includesElement___series_id": [4, 5], "includesElement__abundance_crust": [2.8, 282000.0], "includesElement__atomic_number": [4, 14], "includesElement__atomic_radius": [105.0, 110.0], "includesElement__atomic_radius_rahm": [219.0, 232.0], "includesElement__atomic_volume": [5.0, 12.1], "includesElement__atomic_weight": [9.012183, 28.085], "includesElement__covalent_radius_cordero": [96.0, 111.0], "includesElement__covalent_radius_pyykko": [102.0, 116.0], "includesElement__covalent_radius_pyykko_double": [90.0, 107.0], "includesElement__covalent_radius_pyykko_triple": [85.0, 102.0], "includesElement__density": [1.85, 2.3296], "includesElement__dipole_polarizability": [37.74, 37.3], "includesElement__dipole_polarizability_unc": [0.03, 0.7], "includesElement__discovery_year": [1798, 1824], "includesElement__electron_affinity": [-2.4, 1.389521], "includesElement__electronegativity_allred-rochow": [0.0001874279, 0.0003084126], "includesElement__electronegativity_cottrell-sutton": [0.1382666, 0.1891451], "includesElement__electronegativity_ghosh": [0.144986, 0.178503], "includesElement__electronegativity_gordy": [0.01911765, 0.03577586], "includesElement__electronegativity_mulliken": [3.461349, 4.770602], "includesElement__electronegativity_nagle": [0.3756148, 0.4750986], "includesElement__electronegativity_pauling": [1.57, 1.9], "includesElement__electronegativity_sanderson": [0.1268473, 0.3468158], "includesElement__en_ghosh": [0.144986, 0.178503], "includesElement__en_pauling": [1.57, 1.9], "includesElement__evaporation_heat": [309.0, 383.0], "includesElement__fusion_heat": [12.21, 50.6], "includesElement__glawe_number": [77, 85], "includesElement__group_id": [2, 14], "includesElement__heat_of_formation": [324.0, 450.0], "includesElement__is_radioactive": [false], "includesElement__lattice_constant": [2.29, 5.43], "includesElement__mendeleev_number": [75, 88], "includesElement__molar_heat_capacity": [16.443, 19.99], "includesElement__period": [2, 3], "includesElement__pettifor_number": [77, 85], "includesElement__specific_heat_capacity": [1.825, 0.712], "includesElement__vdw_radius": [153.0, 210.0], "includesElement__vdw_radius_alvarez": [198.0, 219.0], "includesElement__vdw_radius_mm3": [223.0, 229.0], "includesElement__vdw_radius_uff": [274.5, 429.5], "includesElement__abundance_sea": [5.6e-06, 2.2], "includesElement__atomic_weight_uncertainty": [5e-07], "includesElement__c6_gb": [214.0, 308.0], "includesElement__covalent_radius_bragg": [115.0, 117.0], "includesElement__electronegativity_allen": [9.323, 11.33], "includesElement__en_allen": [9.323, 11.33], "includesElement__metallic_radius": [89.0, 117.0], "includesElement__metallic_radius_c12": [112.0, 138.0], "includesElement__thermal_conductivity": [201.0, 149.0], "includesElement__vdw_radius_batsanov": [190.0, 210.0], "includesElement__c6": [227.0, 305.0], "includesElement__is_monoisotopic": [true], "includesElement__vdw_radius_truhlar": [153.0], "includesElement__vdw_radius_dreiding": [427.0], "includesElement__gas_basicity": [814.1], "includesElement__proton_affinity": [837.0], "includesElement__vdw_radius_bondi": [210.0], "formula": ["Be2Si1"], "spacegroup": ["225"], "thermalConductivity": [22.0829], "icsd": ["183010"], "band_gap": [0.0], "density": [2.08066], "density_atomic": [12.2665], "deprecated": [false], "efermi": [5.971809], "energy_above_hull": [0.2588248], "energy_per_atom": [-4.042556], "formation_energy_per_atom": [0.2588248], "homogeneous_poisson": [0.283], "is_gap_direct": [false], "is_magnetic": [false], "is_metal": [true], "is_stable": [false], "nelements": [2], "nsites": [3], "num_magnetic_sites": [0], "num_unique_magnetic_sites": [0], "theoretical": [true], "total_magnetization": [0.0003751], "total_magnetization_normalized_formula_units": [0.0003751], "total_magnetization_normalized_vol": [1.019308e-05], "uncorrected_energy_per_atom": [-4.066223], "universal_anisotropy": [1.187], "volume": [36.79949]}