{"includesElement": ["", "Sn", "C"], "includesElement___series_id": [7, 1], "includesElement__abundance_crust": [2.3, 200.0], "includesElement__atomic_number": [50, 6], "includesElement__atomic_radius": [145.0, 70.0], "includesElement__atomic_radius_rahm": [248.0, 190.0], "includesElement__atomic_volume": [16.3, 5.3], "includesElement__atomic_weight": [118.71, 12.011], "includesElement__covalent_radius_cordero": [139.0, 73.0], "includesElement__covalent_radius_pyykko": [140.0, 75.0], "includesElement__covalent_radius_pyykko_double": [130.0, 67.0], "includesElement__covalent_radius_pyykko_triple": [132.0, 60.0], "includesElement__density": [7.287, 2.2], "includesElement__dipole_polarizability": [53.0, 11.3], "includesElement__dipole_polarizability_unc": [6.0, 0.2], "includesElement__electron_affinity": [1.112067, 1.262119], "includesElement__electronegativity_allred-rochow": [0.0002882653, 0.0005777778], "includesElement__electronegativity_cottrell-sutton": [0.2008909, 0.2081666], "includesElement__electronegativity_ghosh": [0.178052, 0.224776], "includesElement__electronegativity_gordy": [0.04035714, 0.04333333], "includesElement__electronegativity_mulliken": [4.227992, 6.261208], "includesElement__electronegativity_nagle": [0.4225986, 0.7073926], "includesElement__electronegativity_pauling": [1.96, 2.55], "includesElement__electronegativity_sanderson": [0.7622797, 0.427525], "includesElement__en_ghosh": [0.178052, 0.224776], "includesElement__en_pauling": [1.96, 2.55], "includesElement__evaporation_heat": [296.0], "includesElement__fusion_heat": [7.07], "includesElement__glawe_number": [83, 87], "includesElement__group_id": [14], "includesElement__heat_of_formation": [301.2, 716.87], "includesElement__is_radioactive": [false], "includesElement__lattice_constant": [5.82, 3.57], "includesElement__mendeleev_number": [90, 87], "includesElement__molar_heat_capacity": [26.99, 8.517], "includesElement__period": [5, 2], "includesElement__pettifor_number": [83, 95], "includesElement__specific_heat_capacity": [0.227, 0.709], "includesElement__vdw_radius": [217.0, 170.0], "includesElement__vdw_radius_alvarez": [242.0, 177.0], "includesElement__vdw_radius_mm3": [259.0, 204.0], "includesElement__vdw_radius_uff": [439.2, 385.1], "includesElement__abundance_sea": [4e-06, 28.0], "includesElement__atomic_weight_uncertainty": [0.007], "includesElement__c6_gb": [715.0, 47.9], "includesElement__covalent_radius_bragg": [140.0, 77.0], "includesElement__electronegativity_allen": [10.79, 15.05], "includesElement__en_allen": [10.79, 15.05], "includesElement__metallic_radius": [142.0], "includesElement__metallic_radius_c12": [163.0, 86.0], "includesElement__thermal_conductivity": [66.8, 1.59], "includesElement__vdw_radius_batsanov": [225.0, 170.0], "includesElement__c6": [659.0, 46.6], "includesElement__vdw_radius_dreiding": [447.0, 389.83], "includesElement__vdw_radius_bondi": [217.0, 170.0], "includesElement__vdw_radius_rt": [177.0], "formula": ["C1Sn1"], "spacegroup": ["225"], "thermalConductivity": [14.5718], "icsd": ["182366"], "band_gap": [0.0], "density": [7.899826], "density_atomic": [13.73871], "deprecated": [false], "efermi": [10.06293], "energy_above_hull": [1.295525], "energy_per_atom": [-5.323593], "formation_energy_per_atom": [1.295525], "homogeneous_poisson": [0.196], "is_gap_direct": [false], "is_magnetic": [false], "is_metal": [true], "is_stable": [false], "nelements": [2], "nsites": [2], "num_magnetic_sites": [0], "num_unique_magnetic_sites": [0], "theoretical": [true], "total_magnetization": [0.0021784], "total_magnetization_normalized_formula_units": [0.0021784], "total_magnetization_normalized_vol": [7.927965e-05], "uncorrected_energy_per_atom": [-5.323593], "universal_anisotropy": [0.159], "volume": [27.47742], "cbm": [10.0555], "vbm": [10.1018]}