{"includesElement": ["", "Ru", "C"], "includesElement___series_id": [8, 1], "includesElement__abundance_crust": [0.001, 200.0], "includesElement__atomic_number": [44, 6], "includesElement__atomic_radius": [130.0, 70.0], "includesElement__atomic_radius_rahm": [237.0, 190.0], "includesElement__atomic_volume": [8.3, 5.3], "includesElement__atomic_weight": [101.07, 12.011], "includesElement__covalent_radius_cordero": [146.0, 73.0], "includesElement__covalent_radius_pyykko": [125.0, 75.0], "includesElement__covalent_radius_pyykko_double": [114.0, 67.0], "includesElement__covalent_radius_pyykko_triple": [103.0, 60.0], "includesElement__density": [12.1, 2.2], "includesElement__dipole_polarizability": [72.0, 11.3], "includesElement__dipole_polarizability_unc": [10.0, 0.2], "includesElement__discovery_year": [1844], "includesElement__electron_affinity": [1.05, 1.262119], "includesElement__electronegativity_allred-rochow": [0.000208, 0.0005777778], "includesElement__electronegativity_cottrell-sutton": [0.1612452, 0.2081666], "includesElement__electronegativity_ghosh": [0.1376494, 0.224776], "includesElement__electronegativity_gordy": [0.026, 0.04333333], "includesElement__electronegativity_mulliken": [4.20525, 6.261208], "includesElement__electronegativity_nagle": [0.4807499, 0.7073926], "includesElement__electronegativity_pauling": [2.2, 2.55], "includesElement__electronegativity_sanderson": [0.9579373, 0.427525], "includesElement__en_ghosh": [0.1376494, 0.224776], "includesElement__en_pauling": [2.2, 2.55], "includesElement__fusion_heat": [25.5], "includesElement__glawe_number": [61, 87], "includesElement__group_id": [8, 14], "includesElement__heat_of_formation": [650.6, 716.87], "includesElement__is_radioactive": [false], "includesElement__lattice_constant": [2.7, 3.57], "includesElement__mendeleev_number": [60, 87], "includesElement__molar_heat_capacity": [24.06, 8.517], "includesElement__period": [5, 2], "includesElement__pettifor_number": [63, 95], "includesElement__specific_heat_capacity": [0.238, 0.709], "includesElement__vdw_radius": [213.0, 170.0], "includesElement__vdw_radius_alvarez": [246.0, 177.0], "includesElement__vdw_radius_mm3": [234.0, 204.0], "includesElement__vdw_radius_uff": [296.3, 385.1], "includesElement__abundance_sea": [7e-07, 28.0], "includesElement__atomic_weight_uncertainty": [0.02], "includesElement__c6_gb": [809.0, 47.9], "includesElement__electronegativity_allen": [9.1, 15.05], "includesElement__en_allen": [9.1, 15.05], "includesElement__metallic_radius": [125.0], "includesElement__metallic_radius_c12": [134.0, 86.0], "includesElement__thermal_conductivity": [117.0, 1.59], "includesElement__vdw_radius_batsanov": [205.0, 170.0], "includesElement__gas_basicity": [751.4], "includesElement__proton_affinity": [774.0], "includesElement__covalent_radius_bragg": [77.0], "includesElement__c6": [46.6], "includesElement__vdw_radius_dreiding": [389.83], "includesElement__vdw_radius_bondi": [170.0], "includesElement__vdw_radius_rt": [177.0], "formula": ["C1Ru1"], "spacegroup": ["216"], "thermalConductivity": [2.23473], "icsd": ["181771"], "band_gap": [0.6642], "density": [7.889819], "density_atomic": [11.89982], "deprecated": [false], "efermi": [6.091246], "energy_above_hull": [0.4538445], "energy_per_atom": [-8.79769], "formation_energy_per_atom": [0.4538445], "homogeneous_poisson": [0.391], "is_gap_direct": [false], "is_magnetic": [false], "is_metal": [false], "is_stable": [false], "nelements": [2], "nsites": [2], "num_magnetic_sites": [0], "num_unique_magnetic_sites": [0], "theoretical": [true], "total_magnetization": [0.0008742], "total_magnetization_normalized_formula_units": [0.0008742], "total_magnetization_normalized_vol": [3.673163e-05], "uncorrected_energy_per_atom": [-8.79769], "universal_anisotropy": [0.0], "volume": [23.79965], "cbm": [6.703], "vbm": [6.0388]}