{"includesElement": ["", "Sn", "Si"], "includesElement___series_id": [7, 5], "includesElement__abundance_crust": [2.3, 282000.0], "includesElement__atomic_number": [50, 14], "includesElement__atomic_radius": [145.0, 110.0], "includesElement__atomic_radius_rahm": [248.0, 232.0], "includesElement__atomic_volume": [16.3, 12.1], "includesElement__atomic_weight": [118.71, 28.085], "includesElement__covalent_radius_cordero": [139.0, 111.0], "includesElement__covalent_radius_pyykko": [140.0, 116.0], "includesElement__covalent_radius_pyykko_double": [130.0, 107.0], "includesElement__covalent_radius_pyykko_triple": [132.0, 102.0], "includesElement__density": [7.287, 2.3296], "includesElement__dipole_polarizability": [53.0, 37.3], "includesElement__dipole_polarizability_unc": [6.0, 0.7], "includesElement__electron_affinity": [1.112067, 1.389521], "includesElement__electronegativity_allred-rochow": [0.0002882653, 0.0003084126], "includesElement__electronegativity_cottrell-sutton": [0.2008909, 0.1891451], "includesElement__electronegativity_ghosh": [0.178052, 0.178503], "includesElement__electronegativity_gordy": [0.04035714, 0.03577586], "includesElement__electronegativity_mulliken": [4.227992, 4.770602], "includesElement__electronegativity_nagle": [0.4225986, 0.4750986], "includesElement__electronegativity_pauling": [1.96, 1.9], "includesElement__electronegativity_sanderson": [0.7622797, 0.3468158], "includesElement__en_ghosh": [0.178052, 0.178503], "includesElement__en_pauling": [1.96, 1.9], "includesElement__evaporation_heat": [296.0, 383.0], "includesElement__fusion_heat": [7.07, 50.6], "includesElement__glawe_number": [83, 85], "includesElement__group_id": [14], "includesElement__heat_of_formation": [301.2, 450.0], "includesElement__is_radioactive": [false], "includesElement__lattice_constant": [5.82, 5.43], "includesElement__mendeleev_number": [90, 88], "includesElement__molar_heat_capacity": [26.99, 19.99], "includesElement__period": [5, 3], "includesElement__pettifor_number": [83, 85], "includesElement__specific_heat_capacity": [0.227, 0.712], "includesElement__vdw_radius": [217.0, 210.0], "includesElement__vdw_radius_alvarez": [242.0, 219.0], "includesElement__vdw_radius_mm3": [259.0, 229.0], "includesElement__vdw_radius_uff": [439.2, 429.5], "includesElement__abundance_sea": [4e-06, 2.2], "includesElement__atomic_weight_uncertainty": [0.007], "includesElement__c6_gb": [715.0, 308.0], "includesElement__covalent_radius_bragg": [140.0, 117.0], "includesElement__electronegativity_allen": [10.79, 11.33], "includesElement__en_allen": [10.79, 11.33], "includesElement__metallic_radius": [142.0, 117.0], "includesElement__metallic_radius_c12": [163.0, 138.0], "includesElement__thermal_conductivity": [66.8, 149.0], "includesElement__vdw_radius_batsanov": [225.0, 210.0], "includesElement__c6": [659.0, 305.0], "includesElement__vdw_radius_dreiding": [447.0, 427.0], "includesElement__vdw_radius_bondi": [217.0, 210.0], "includesElement__discovery_year": [1824], "includesElement__gas_basicity": [814.1], "includesElement__proton_affinity": [837.0], "formula": ["Si1Sn1"], "spacegroup": ["216"], "thermalConductivity": [7.49859], "icsd": ["184676"], "band_gap": [0.4292], "density": [4.361248], "density_atomic": [27.94609], "deprecated": [false], "efermi": [5.533627], "energy_above_hull": [0.1919988], "energy_per_atom": [-16.56798], "formation_energy_per_atom": [0.1919988], "homogeneous_poisson": [0.223], "is_gap_direct": [true], "is_magnetic": [false], "is_metal": [false], "is_stable": [false], "nelements": [2], "nsites": [2], "num_magnetic_sites": [0], "num_unique_magnetic_sites": [0], "theoretical": [true], "total_magnetization": [5.5e-06], "total_magnetization_normalized_formula_units": [5.5e-06], "total_magnetization_normalized_vol": [9.840374e-08], "uncorrected_energy_per_atom": [-4.560946], "universal_anisotropy": [0.365], "volume": [55.89219], "cbm": [5.9024], "vbm": [5.4732]}