{"includesElement": ["", "Zr", "C"], "includesElement___series_id": [8, 1], "includesElement__abundance_crust": [165.0, 200.0], "includesElement__atomic_number": [40, 6], "includesElement__atomic_radius": [155.0, 70.0], "includesElement__atomic_radius_rahm": [269.0, 190.0], "includesElement__atomic_volume": [14.1, 5.3], "includesElement__atomic_weight": [91.224, 12.011], "includesElement__covalent_radius_cordero": [175.0, 73.0], "includesElement__covalent_radius_pyykko": [154.0, 75.0], "includesElement__covalent_radius_pyykko_double": [127.0, 67.0], "includesElement__covalent_radius_pyykko_triple": [121.0, 60.0], "includesElement__density": [6.52, 2.2], "includesElement__dipole_polarizability": [112.0, 11.3], "includesElement__dipole_polarizability_unc": [13.0, 0.2], "includesElement__discovery_year": [1789], "includesElement__electron_affinity": [0.426, 1.262119], "includesElement__electronegativity_allred-rochow": [0.0001328217, 0.0005777778], "includesElement__electronegativity_cottrell-sutton": [0.1430194, 0.2081666], "includesElement__electronegativity_ghosh": [0.1248887, 0.224776], "includesElement__electronegativity_gordy": [0.02045455, 0.04333333], "includesElement__electronegativity_mulliken": [3.52995, 6.261208], "includesElement__electronegativity_nagle": [0.3293169, 0.7073926], "includesElement__electronegativity_pauling": [1.33, 2.55], "includesElement__electronegativity_sanderson": [0.4744467, 0.427525], "includesElement__en_ghosh": [0.1248887, 0.224776], "includesElement__en_pauling": [1.33, 2.55], "includesElement__evaporation_heat": [567.0], "includesElement__fusion_heat": [19.2], "includesElement__glawe_number": [49, 87], "includesElement__group_id": [4, 14], "includesElement__heat_of_formation": [610.0, 716.87], "includesElement__is_radioactive": [false], "includesElement__lattice_constant": [3.23, 3.57], "includesElement__mendeleev_number": [44, 87], "includesElement__molar_heat_capacity": [25.36, 8.517], "includesElement__period": [5, 2], "includesElement__pettifor_number": [49, 95], "includesElement__specific_heat_capacity": [0.278, 0.709], "includesElement__vdw_radius": [223.0, 170.0], "includesElement__vdw_radius_alvarez": [252.0, 177.0], "includesElement__vdw_radius_mm3": [254.0, 204.0], "includesElement__vdw_radius_uff": [312.4, 385.1], "includesElement__abundance_sea": [3e-05, 28.0], "includesElement__atomic_weight_uncertainty": [0.002], "includesElement__c6_gb": [1360.0, 47.9], "includesElement__electronegativity_allen": [7.808, 15.05], "includesElement__en_allen": [7.808, 15.05], "includesElement__metallic_radius": [145.0], "includesElement__metallic_radius_c12": [160.0, 86.0], "includesElement__thermal_conductivity": [22.7, 1.59], "includesElement__vdw_radius_batsanov": [230.0, 170.0], "includesElement__covalent_radius_bragg": [77.0], "includesElement__c6": [46.6], "includesElement__vdw_radius_dreiding": [389.83], "includesElement__vdw_radius_bondi": [170.0], "includesElement__vdw_radius_rt": [177.0], "formula": ["C1Zr1"], "spacegroup": ["216"], "thermalConductivity": [9.29651], "icsd": ["183162"], "band_gap": [0.4781], "density": [5.15055], "density_atomic": [16.64145], "deprecated": [false], "efermi": [3.352223], "energy_above_hull": [0.6132527], "energy_per_atom": [-9.078968], "formation_energy_per_atom": [-0.1907848], "homogeneous_poisson": [0.383], "is_gap_direct": [false], "is_magnetic": [false], "is_metal": [false], "is_stable": [false], "nelements": [2], "nsites": [2], "num_magnetic_sites": [0], "num_unique_magnetic_sites": [0], "theoretical": [true], "total_magnetization": [0.0002096], "total_magnetization_normalized_formula_units": [0.0002096], "total_magnetization_normalized_vol": [6.297527e-06], "uncorrected_energy_per_atom": [-9.078968], "universal_anisotropy": [0.948], "volume": [33.2829], "cbm": [3.7237], "e_electronic": [26.89881], "e_ionic": [10.26961], "e_total": [37.16842], "n": [5.186406], "vbm": [3.2456], "e_ij_max": [0.3862]}