{"includesElement": ["", "Mg", "P", "Li"], "includesElement___series_id": [4, 1, 3], "includesElement__abundance_crust": [23300.0, 1050.0, 20.0], "includesElement__atomic_number": [12, 15, 3], "includesElement__atomic_radius": [150.0, 100.0, 145.0], "includesElement__atomic_radius_rahm": [240.0, 223.0, 220.0], "includesElement__atomic_volume": [14.0, 17.0, 13.1], "includesElement__atomic_weight": [24.305, 30.97376, 6.94], "includesElement__covalent_radius_cordero": [141.0, 107.0, 128.0], "includesElement__covalent_radius_pyykko": [139.0, 111.0, 133.0], "includesElement__covalent_radius_pyykko_double": [132.0, 102.0, 124.0], "includesElement__covalent_radius_pyykko_triple": [127.0, 94.0], "includesElement__density": [1.74, 1.823, 0.534], "includesElement__dipole_polarizability": [71.2, 25.0, 164.1125], "includesElement__dipole_polarizability_unc": [0.4, 1.0, 0.0005], "includesElement__discovery_year": [1808, 1669, 1817], "includesElement__electronegativity_allred-rochow": [0.0001475079, 0.0003895788, 7.3492e-05], "includesElement__electronegativity_cottrell-sutton": [0.1431908, 0.2079501, 0.09886575], "includesElement__electronegativity_ghosh": [0.121644, 0.206931, 0.105093], "includesElement__electronegativity_gordy": [0.0205036, 0.04324324, 0.009774436], "includesElement__electronegativity_mulliken": [3.823117, 5.616646, 3.004882], "includesElement__electronegativity_nagle": [0.3039835, 0.5848035, 0.1826499], "includesElement__electronegativity_pauling": [1.31, 2.19, 0.98], "includesElement__electronegativity_sanderson": [0.1524211, 0.4510269, 0.04886793], "includesElement__en_ghosh": [0.121644, 0.206931, 0.105093], "includesElement__en_pauling": [1.31, 2.19, 0.98], "includesElement__evaporation_heat": [131.8, 49.8, 148.0], "includesElement__fusion_heat": [9.2, 2.51, 2.89], "includesElement__glawe_number": [73, 89, 12], "includesElement__group_id": [2, 15, 1], "includesElement__heat_of_formation": [147.1, 316.5, 159.3], "includesElement__is_radioactive": [false], "includesElement__lattice_constant": [3.21, 7.17, 3.49], "includesElement__mendeleev_number": [76, 94, 1], "includesElement__molar_heat_capacity": [24.869, 23.824, 24.86], "includesElement__period": [3, 2], "includesElement__pettifor_number": [73, 90, 12], "includesElement__specific_heat_capacity": [1.023, 0.769, 3.582], "includesElement__vdw_radius": [173.0, 180.0, 182.0], "includesElement__vdw_radius_alvarez": [251.0, 190.0, 212.0], "includesElement__vdw_radius_mm3": [243.0, 222.0, 255.0], "includesElement__vdw_radius_uff": [302.1, 414.7, 245.1], "includesElement__abundance_sea": [1290.0, 0.06, 0.18], "includesElement__c6_gb": [629.0, 187.0, 1410.0], "includesElement__covalent_radius_bragg": [142.0, 150.0], "includesElement__electronegativity_allen": [7.646, 13.33, 5.392], "includesElement__en_allen": [7.646, 13.33, 5.392], "includesElement__metallic_radius": [136.0, 110.0, 123.0], "includesElement__metallic_radius_c12": [160.0, 128.0, 155.0], "includesElement__thermal_conductivity": [156.0, 84.8], "includesElement__vdw_radius_batsanov": [220.0, 195.0], "includesElement__c6": [626.0, 185.0, 1392.0], "includesElement__gas_basicity": [797.3, 604.8], "includesElement__proton_affinity": [819.6, 626.8], "includesElement__vdw_radius_bondi": [173.0, 180.0, 181.0], "includesElement__electron_affinity": [0.746607, 0.618049], "includesElement__atomic_weight_uncertainty": [5e-09], "includesElement__is_monoisotopic": [true], "includesElement__vdw_radius_dreiding": [415.0], "formula": ["Li1Mg1P1"], "spacegroup": ["216"], "thermalConductivity": [5.08274], "icsd": ["44807"], "band_gap": [0.0], "density": [2.146787], "density_atomic": [16.04232], "deprecated": [false], "efermi": [3.98276], "energy_above_hull": [0.3504887], "energy_per_atom": [-3.385764], "formation_energy_per_atom": [-0.4008087], "homogeneous_poisson": [0.323], "is_gap_direct": [false], "is_magnetic": [false], "is_metal": [true], "is_stable": [false], "nelements": [3], "nsites": [3], "num_magnetic_sites": [0], "num_unique_magnetic_sites": [0], "theoretical": [false], "total_magnetization": [0.0], "total_magnetization_normalized_formula_units": [0.0], "total_magnetization_normalized_vol": [0.0], "uncorrected_energy_per_atom": [-3.385764], "universal_anisotropy": [5.554], "volume": [48.12696]}