{"includesElement": ["", "Zr", "Ge", "V"], "includesElement___series_id": [8, 5], "includesElement__abundance_crust": [165.0, 1.5, 120.0], "includesElement__atomic_number": [40, 32, 23], "includesElement__atomic_radius": [155.0, 125.0, 135.0], "includesElement__atomic_radius_rahm": [269.0, 234.0, 252.0], "includesElement__atomic_volume": [14.1, 13.6, 8.35], "includesElement__atomic_weight": [91.224, 72.63, 50.9415], "includesElement__covalent_radius_cordero": [175.0, 120.0, 153.0], "includesElement__covalent_radius_pyykko": [154.0, 121.0, 134.0], "includesElement__covalent_radius_pyykko_double": [127.0, 111.0, 112.0], "includesElement__covalent_radius_pyykko_triple": [121.0, 114.0, 106.0], "includesElement__density": [6.52, 5.3234, 6.0], "includesElement__dipole_polarizability": [112.0, 40.0, 87.0], "includesElement__dipole_polarizability_unc": [13.0, 1.0, 10.0], "includesElement__discovery_year": [1789, 1886, 1830], "includesElement__electron_affinity": [0.426, 1.232712, 0.525], "includesElement__electronegativity_allred-rochow": [0.0001328217, 0.0003859026, 0.0001837826], "includesElement__electronegativity_cottrell-sutton": [0.1430194, 0.2160884, 0.1569295], "includesElement__electronegativity_ghosh": [0.1248887, 0.1895892, 0.1273344], "includesElement__electronegativity_gordy": [0.02045455, 0.04669421, 0.02462687], "includesElement__electronegativity_mulliken": [3.52995, 4.566073, 3.635594], "includesElement__electronegativity_nagle": [0.3293169, 0.4641589, 0.3859078], "includesElement__electronegativity_pauling": [1.33, 2.01, 1.63], "includesElement__electronegativity_sanderson": [0.4744467, 0.8001471, 0.4388898], "includesElement__en_ghosh": [0.1248887, 0.1895892, 0.1273344], "includesElement__en_pauling": [1.33, 2.01, 1.63], "includesElement__evaporation_heat": [567.0, 328.0, 460.0], "includesElement__fusion_heat": [19.2, 36.8, 17.5], "includesElement__glawe_number": [49, 84, 54], "includesElement__group_id": [4, 14, 5], "includesElement__heat_of_formation": [610.0, 372.0, 515.5], "includesElement__is_radioactive": [false], "includesElement__lattice_constant": [3.23, 5.66, 3.02], "includesElement__mendeleev_number": [44, 89, 47], "includesElement__molar_heat_capacity": [25.36, 23.222, 24.89], "includesElement__period": [5, 4], "includesElement__pettifor_number": [49, 84, 54], "includesElement__specific_heat_capacity": [0.278, 0.32, 0.489], "includesElement__vdw_radius": [223.0, 211.0, 207.0], "includesElement__vdw_radius_alvarez": [252.0, 229.0, 242.0], "includesElement__vdw_radius_mm3": [254.0, 244.0, 229.0], "includesElement__vdw_radius_uff": [312.4, 428.0, 314.4], "includesElement__abundance_sea": [3e-05, 5e-05, 0.0025], "includesElement__atomic_weight_uncertainty": [0.002, 0.008, 0.0001], "includesElement__c6_gb": [1360.0, 365.0, 955.0], "includesElement__electronegativity_allen": [7.808, 11.8, 9.063], "includesElement__en_allen": [7.808, 11.8, 9.063], "includesElement__metallic_radius": [145.0, 124.0, 122.0], "includesElement__metallic_radius_c12": [160.0, 144.0, 134.0], "includesElement__thermal_conductivity": [22.7, 60.2, 30.7], "includesElement__vdw_radius_batsanov": [230.0, 210.0, 205.0], "includesElement__c6": [354.0, 832.0], "includesElement__vdw_radius_dreiding": [427.0], "includesElement__vdw_radius_truhlar": [211.0], "includesElement__gas_basicity": [836.8], "includesElement__proton_affinity": [859.4], "formula": ["Ge2V2Zr2"], "spacegroup": ["139"], "thermalConductivity": [8.82642], "icsd": ["88210"], "band_gap": [0.0], "density": [7.039905], "density_atomic": [16.8891], "deprecated": [false], "efermi": [5.951806], "energy_above_hull": [0.0], "energy_per_atom": [-8.080935], "formation_energy_per_atom": [-0.6627238], "homogeneous_poisson": [0.286], "is_gap_direct": [false], "is_magnetic": [false], "is_metal": [true], "is_stable": [true], "nelements": [3], "nsites": [6], "num_magnetic_sites": [0], "num_unique_magnetic_sites": [0], "theoretical": [false], "total_magnetization": [0.0001211], "total_magnetization_normalized_formula_units": [6.055e-05], "total_magnetization_normalized_vol": [1.195051e-06], "uncorrected_energy_per_atom": [-17.64539], "universal_anisotropy": [2.942], "volume": [101.3346], "equilibrium_reaction_energy_per_atom": [-0.05984652]}