{"includesElement": ["", "Ba", "Se", "Cu"], "includesElement___series_id": [4, 1, 8], "includesElement__abundance_crust": [425.0, 0.05, 60.0], "includesElement__atomic_number": [56, 34, 29], "includesElement__atomic_radius": [215.0, 115.0, 135.0], "includesElement__atomic_radius_rahm": [293.0, 224.0, 217.0], "includesElement__atomic_volume": [39.0, 16.5, 7.1], "includesElement__atomic_weight": [137.327, 78.971, 63.546], "includesElement__covalent_radius_cordero": [215.0, 120.0, 132.0], "includesElement__covalent_radius_pyykko": [196.0, 116.0, 112.0], "includesElement__covalent_radius_pyykko_double": [161.0, 107.0, 115.0], "includesElement__covalent_radius_pyykko_triple": [149.0, 107.0, 120.0], "includesElement__density": [3.62, 4.809, 8.96], "includesElement__dipole_polarizability": [272.0, 28.9, 46.5], "includesElement__dipole_polarizability_unc": [10.0, 1.0, 0.5], "includesElement__discovery_year": [1808, 1818], "includesElement__electron_affinity": [0.14462, 2.02067, 1.235], "includesElement__electronegativity_allred-rochow": [7.418784e-05, 0.0005164982, 0.0002949617], "includesElement__electronegativity_cottrell-sutton": [0.1205853, 0.2447729, 0.1817573], "includesElement__electronegativity_ghosh": [0.1586786, 0.2240328, 0.1511716], "includesElement__electronegativity_gordy": [0.01454082, 0.05991379, 0.03303571], "includesElement__electronegativity_mulliken": [2.678142, 5.886531, 4.48069], "includesElement__electronegativity_nagle": [0.1944556, 0.592131, 0.6184623], "includesElement__electronegativity_pauling": [0.89, 2.55, 1.9], "includesElement__electronegativity_sanderson": [0.3032951, 0.9659121, 0.9175542], "includesElement__en_ghosh": [0.1586786, 0.2240328, 0.1511716], "includesElement__en_pauling": [0.89, 2.55, 1.9], "includesElement__evaporation_heat": [142.0, 59.7, 304.6], "includesElement__fusion_heat": [7.66, 5.23, 13.01], "includesElement__glawe_number": [14, 95, 68], "includesElement__group_id": [2, 16, 11], "includesElement__heat_of_formation": [179.1, 227.2, 337.4], "includesElement__is_radioactive": [false], "includesElement__lattice_constant": [5.02, 4.36, 3.61], "includesElement__mendeleev_number": [9, 101, 71], "includesElement__molar_heat_capacity": [28.07, 25.363, 24.44], "includesElement__period": [6, 4], "includesElement__pettifor_number": [14, 93, 72], "includesElement__specific_heat_capacity": [0.204, 0.321, 0.385], "includesElement__vdw_radius": [268.0, 190.0, 196.0], "includesElement__vdw_radius_alvarez": [303.0, 182.0, 238.0], "includesElement__vdw_radius_mm3": [307.0, 229.0, 226.0], "includesElement__vdw_radius_uff": [370.3, 420.5, 349.5], "includesElement__abundance_sea": [0.013, 0.0002, 0.00025], "includesElement__atomic_weight_uncertainty": [0.007, 0.008, 0.003], "includesElement__c6_gb": [5540.0, 233.0, 264.0], "includesElement__covalent_radius_bragg": [210.0, 117.0, 137.0], "includesElement__electronegativity_allen": [5.211, 14.34, 10.96], "includesElement__en_allen": [5.211, 14.34, 10.96], "includesElement__metallic_radius": [198.0, 117.0, 118.0], "includesElement__metallic_radius_c12": [222.0, 140.0, 128.0], "includesElement__vdw_radius_batsanov": [270.0, 190.0, 200.0], "includesElement__vdw_radius_truhlar": [268.0], "includesElement__thermal_conductivity": [0.52, 401.0], "includesElement__c6": [210.0, 253.0], "includesElement__vdw_radius_dreiding": [403.0], "includesElement__vdw_radius_bondi": [190.0], "includesElement__gas_basicity": [632.4], "includesElement__proton_affinity": [655.3], "formula": ["Ba1Cu2Se2"], "spacegroup": ["139"], "thermalConductivity": [1.89033], "icsd": ["89576"], "band_gap": [0.3703], "density": [6.405963], "density_atomic": [21.89555], "deprecated": [false], "efermi": [4.823067], "energy_above_hull": [0.03685666], "energy_per_atom": [-4.459476], "formation_energy_per_atom": [-1.037633], "homogeneous_poisson": [0.358], "is_gap_direct": [true], "is_magnetic": [false], "is_metal": [false], "is_stable": [false], "nelements": [3], "nsites": [5], "num_magnetic_sites": [0], "num_unique_magnetic_sites": [0], "theoretical": [false], "total_magnetization": [0.0], "total_magnetization_normalized_formula_units": [0.0], "total_magnetization_normalized_vol": [0.0], "uncorrected_energy_per_atom": [-4.270676], "universal_anisotropy": [1.108], "volume": [109.4777], "cbm": [4.9865], "vbm": [4.6162]}