{"includesElement": ["", "Sb", "Pt", "Lu"], "includesElement___series_id": [5, 8], "includesElement__abundance_crust": [0.2, 0.005, 0.8], "includesElement__atomic_number": [51, 78, 71], "includesElement__atomic_radius": [145.0, 135.0, 175.0], "includesElement__atomic_radius_rahm": [246.0, 230.0, 270.0], "includesElement__atomic_volume": [18.4, 9.1, 17.8], "includesElement__atomic_weight": [121.76, 195.084, 174.9668], "includesElement__covalent_radius_cordero": [139.0, 136.0, 187.0], "includesElement__covalent_radius_pyykko": [140.0, 123.0, 162.0], "includesElement__covalent_radius_pyykko_double": [133.0, 112.0, 131.0], "includesElement__covalent_radius_pyykko_triple": [127.0, 110.0, 131.0], "includesElement__density": [6.68, 21.5, 9.84], "includesElement__dipole_polarizability": [43.0, 48.0, 137.0], "includesElement__dipole_polarizability_unc": [2.0, 4.0, 7.0], "includesElement__electron_affinity": [1.046, 2.128, 0.34], "includesElement__electronegativity_allred-rochow": [0.0003214286, 0.0002346487, 0.0001143118], "includesElement__electronegativity_cottrell-sutton": [0.212132, 0.1698876, 0.1360828], "includesElement__electronegativity_ghosh": [0.1918774, 0.25691, 0.22565], "includesElement__electronegativity_gordy": [0.045, 0.02886179, 0.01851852], "includesElement__electronegativity_mulliken": [4.827195, 5.543415, 2.882935], "includesElement__electronegativity_nagle": [0.4880907, 0.5928156, 0.4987805], "includesElement__electronegativity_pauling": [2.05, 2.2, 1.0], "includesElement__electronegativity_sanderson": [0.7762722, 1.45101, 0.6027398], "includesElement__en_ghosh": [0.1918774, 0.25691, 0.22565], "includesElement__en_pauling": [2.05, 2.2, 1.0], "includesElement__evaporation_heat": [195.2, 470.0, 414.0], "includesElement__fusion_heat": [20.08, 21.76], "includesElement__glawe_number": [91, 64, 19], "includesElement__group_id": [15, 10], "includesElement__heat_of_formation": [264.4, 565.7, 427.6], "includesElement__is_radioactive": [false], "includesElement__lattice_constant": [4.51, 3.92, 3.51], "includesElement__mendeleev_number": [96, 69, 41], "includesElement__molar_heat_capacity": [25.23, 25.86, 26.86], "includesElement__period": [5, 6], "includesElement__pettifor_number": [88, 68, 21], "includesElement__specific_heat_capacity": [0.207, 0.133, 0.154], "includesElement__vdw_radius": [206.0, 213.0, 224.0], "includesElement__vdw_radius_alvarez": [247.0, 229.0, 274.0], "includesElement__vdw_radius_mm3": [252.0, 239.0, 265.0], "includesElement__vdw_radius_uff": [442.0, 275.4, 364.0], "includesElement__abundance_sea": [0.00024, 1.5e-07], "includesElement__atomic_weight_uncertainty": [0.001, 0.009, 0.0001], "includesElement__c6_gb": [504.0, 470.0, 2020.0], "includesElement__covalent_radius_bragg": [140.0], "includesElement__electronegativity_allen": [11.74, 10.16, 6.455], "includesElement__en_allen": [11.74, 10.16, 6.455], "includesElement__metallic_radius": [139.0, 130.0], "includesElement__metallic_radius_c12": [166.0, 139.0], "includesElement__thermal_conductivity": [24.43, 71.6], "includesElement__vdw_radius_batsanov": [220.0, 205.0], "includesElement__c6": [492.0], "includesElement__vdw_radius_dreiding": [435.0], "includesElement__vdw_radius_truhlar": [206.0], "includesElement__discovery_year": [1735, 1907], "includesElement__gas_basicity": [970.6], "includesElement__proton_affinity": [992.0], "formula": ["Lu1Pt1Sb1", "LuSbPt"], "mp_id": ["10194"], "spacegroup": ["216"], "thermalConductivity": [5.66017, 6.42], "icsd": ["44916"], "band_gap": [0.0], "density": [11.98735], "density_atomic": [22.70925], "deprecated": [false], "efermi": [6.43658], "energy_above_hull": [0.0], "energy_per_atom": [-39.79099], "formation_energy_per_atom": [-1.366354], "homogeneous_poisson": [0.294], "is_gap_direct": [false], "is_magnetic": [false], "is_metal": [true], "is_stable": [true], "nelements": [3], "nsites": [3], "num_magnetic_sites": [0], "num_unique_magnetic_sites": [0], "theoretical": [false], "total_magnetization": [1.6e-06], "total_magnetization_normalized_formula_units": [1.6e-06], "total_magnetization_normalized_vol": [2.348529e-08], "uncorrected_energy_per_atom": [-39.79099], "universal_anisotropy": [0.036], "volume": [68.12775], "equilibrium_reaction_energy_per_atom": [-0.249969]}