{"includesElement": ["", "Ni", "Al", "V"], "includesElement___series_id": [8, 7], "includesElement__abundance_crust": [84.0, 82300.0, 120.0], "includesElement__atomic_number": [28, 13, 23], "includesElement__atomic_radius": [135.0, 125.0], "includesElement__atomic_radius_rahm": [229.0, 239.0, 252.0], "includesElement__atomic_volume": [6.6, 10.0, 8.35], "includesElement__atomic_weight": [58.6934, 26.98154, 50.9415], "includesElement__covalent_radius_cordero": [124.0, 121.0, 153.0], "includesElement__covalent_radius_pyykko": [110.0, 126.0, 134.0], "includesElement__covalent_radius_pyykko_double": [101.0, 113.0, 112.0], "includesElement__covalent_radius_pyykko_triple": [101.0, 111.0, 106.0], "includesElement__density": [8.9, 2.7, 6.0], "includesElement__dipole_polarizability": [49.0, 57.8, 87.0], "includesElement__dipole_polarizability_unc": [3.0, 1.0, 10.0], "includesElement__discovery_year": [1751, 1825, 1830], "includesElement__electron_affinity": [1.156, 0.43283, 0.525], "includesElement__electronegativity_allred-rochow": [0.0003347107, 0.0002204586, 0.0001837826], "includesElement__electronegativity_cottrell-sutton": [0.1918806, 0.1666667, 0.1569295], "includesElement__electronegativity_ghosh": [0.1472068, 0.150078, 0.1273344], "includesElement__electronegativity_gordy": [0.03681818, 0.02777778, 0.02462687], "includesElement__electronegativity_mulliken": [4.397939, 3.209299, 3.635594], "includesElement__electronegativity_nagle": [0.588755, 0.3730192, 0.3859078], "includesElement__electronegativity_pauling": [1.91, 1.61, 1.63], "includesElement__electronegativity_sanderson": [0.937704, 0.2360927, 0.4388898], "includesElement__en_ghosh": [0.1472068, 0.150078, 0.1273344], "includesElement__en_pauling": [1.91, 1.61, 1.63], "includesElement__evaporation_heat": [378.6, 284.1, 460.0], "includesElement__fusion_heat": [17.61, 10.75, 17.5], "includesElement__glawe_number": [69, 78, 54], "includesElement__group_id": [10, 13, 5], "includesElement__heat_of_formation": [430.1, 330.9, 515.5], "includesElement__is_radioactive": [false], "includesElement__lattice_constant": [3.52, 4.05, 3.02], "includesElement__mendeleev_number": [67, 82, 47], "includesElement__molar_heat_capacity": [26.07, 24.2, 24.89], "includesElement__period": [4, 3], "includesElement__pettifor_number": [67, 80, 54], "includesElement__specific_heat_capacity": [0.444, 0.897, 0.489], "includesElement__vdw_radius": [197.0, 184.0, 207.0], "includesElement__vdw_radius_alvarez": [240.0, 225.0, 242.0], "includesElement__vdw_radius_mm3": [222.0, 236.0, 229.0], "includesElement__vdw_radius_uff": [283.4, 449.9, 314.4], "includesElement__abundance_sea": [0.00056, 0.002, 0.0025], "includesElement__atomic_weight_uncertainty": [0.0004, 7e-07, 0.0001], "includesElement__c6_gb": [393.0, 520.0, 955.0], "includesElement__covalent_radius_bragg": [135.0], "includesElement__electronegativity_allen": [11.13, 9.539, 9.063], "includesElement__en_allen": [11.13, 9.539, 9.063], "includesElement__metallic_radius": [115.0, 125.0, 122.0], "includesElement__metallic_radius_c12": [124.0, 143.0, 134.0], "includesElement__thermal_conductivity": [90.9, 237.0, 30.7], "includesElement__vdw_radius_batsanov": [200.0, 210.0, 205.0], "includesElement__c6": [373.0, 528.0, 832.0], "includesElement__gas_basicity": [714.1, 836.8], "includesElement__proton_affinity": [737.0, 859.4], "includesElement__is_monoisotopic": [true], "includesElement__vdw_radius_dreiding": [439.0], "includesElement__vdw_radius_truhlar": [184.0], "formula": ["Al1Ni2V1"], "spacegroup": ["225"], "thermalConductivity": [6.06207], "icsd": ["58071"], "band_gap": [0.0], "density": [6.67294], "density_atomic": [12.15055], "deprecated": [false], "efermi": [7.996777], "energy_above_hull": [0.04628495], "energy_per_atom": [-11.58887], "formation_energy_per_atom": [-0.3925893], "homogeneous_poisson": [0.352], "is_gap_direct": [false], "is_magnetic": [false], "is_metal": [true], "is_stable": [false], "nelements": [3], "nsites": [4], "num_magnetic_sites": [0], "num_unique_magnetic_sites": [0], "theoretical": [false], "total_magnetization": [0.0002926], "total_magnetization_normalized_formula_units": [0.0002926], "total_magnetization_normalized_vol": [6.020303e-06], "uncorrected_energy_per_atom": [-6.484604], "universal_anisotropy": [5.343], "volume": [48.60221]}