{"includesElement": ["", "Er", "B", "C"], "includesElement___series_id": [9, 5, 1], "includesElement__abundance_crust": [3.5, 10.0, 200.0], "includesElement__atomic_number": [68, 5, 6], "includesElement__atomic_radius": [175.0, 85.0, 70.0], "includesElement__atomic_radius_rahm": [272.0, 205.0, 190.0], "includesElement__atomic_volume": [18.4, 4.6, 5.3], "includesElement__atomic_weight": [167.259, 10.81, 12.011], "includesElement__covalent_radius_cordero": [189.0, 84.0, 73.0], "includesElement__covalent_radius_pyykko": [165.0, 85.0, 75.0], "includesElement__covalent_radius_pyykko_double": [133.0, 78.0, 67.0], "includesElement__density": [9.07, 2.34, 2.2], "includesElement__dipole_polarizability": [150.0, 20.5, 11.3], "includesElement__dipole_polarizability_unc": [10.0, 0.1, 0.2], "includesElement__discovery_year": [1843, 1808], "includesElement__electronegativity_allred-rochow": [0.0001046832, 0.0003598616, 0.0005777778], "includesElement__electronegativity_cottrell-sutton": [0.1314257, 0.1748949, 0.2081666], "includesElement__electronegativity_ghosh": [0.212261, 0.184886, 0.224776], "includesElement__electronegativity_gordy": [0.01727273, 0.03058824, 0.04333333], "includesElement__electronegativity_mulliken": [3.05385, 4.288871, 6.261208], "includesElement__electronegativity_nagle": [0.4536061, 0.5269739, 0.7073926], "includesElement__electronegativity_pauling": [1.24, 2.04, 2.55], "includesElement__electronegativity_sanderson": [0.5576573, 0.2546274, 0.427525], "includesElement__en_ghosh": [0.212261, 0.184886, 0.224776], "includesElement__en_pauling": [1.24, 2.04, 2.55], "includesElement__evaporation_heat": [317.0, 504.5], "includesElement__glawe_number": [22, 86, 87], "includesElement__heat_of_formation": [316.4, 565.0, 716.87], "includesElement__is_radioactive": [false], "includesElement__lattice_constant": [3.56, 8.73, 3.57], "includesElement__mendeleev_number": [35, 81, 87], "includesElement__molar_heat_capacity": [28.12, 11.087, 8.517], "includesElement__period": [6, 2], "includesElement__pettifor_number": [23, 86, 95], "includesElement__specific_heat_capacity": [0.168, 1.026, 0.709], "includesElement__vdw_radius": [229.0, 192.0, 170.0], "includesElement__vdw_radius_alvarez": [283.0, 191.0, 177.0], "includesElement__vdw_radius_mm3": [267.0, 215.0, 204.0], "includesElement__vdw_radius_uff": [339.1, 408.3, 385.1], "includesElement__abundance_sea": [8.7e-07, 4.44, 28.0], "includesElement__atomic_weight_uncertainty": [0.003], "includesElement__c6_gb": [2150.0, 99.2, 47.9], "includesElement__covalent_radius_pyykko_triple": [73.0, 60.0], "includesElement__electron_affinity": [0.279723, 1.262119], "includesElement__fusion_heat": [23.6], "includesElement__group_id": [13, 14], "includesElement__electronegativity_allen": [12.13, 15.05], "includesElement__en_allen": [12.13, 15.05], "includesElement__metallic_radius": [80.0], "includesElement__metallic_radius_c12": [98.0, 86.0], "includesElement__thermal_conductivity": [27.4, 1.59], "includesElement__vdw_radius_batsanov": [180.0, 170.0], "includesElement__c6": [99.5, 46.6], "includesElement__vdw_radius_dreiding": [402.0, 389.83], "includesElement__vdw_radius_truhlar": [192.0], "includesElement__covalent_radius_bragg": [77.0], "includesElement__vdw_radius_bondi": [170.0], "includesElement__vdw_radius_rt": [177.0], "formula": ["B4C4Er2"], "spacegroup": ["127"], "thermalConductivity": [20.3828], "icsd": ["94042"], "band_gap": [0.0], "density": [7.130928], "density_atomic": [9.915476], "deprecated": [false], "efermi": [6.349971], "energy_above_hull": [0.0], "energy_per_atom": [-7.717701], "formation_energy_per_atom": [-0.4409339], "homogeneous_poisson": [0.226], "is_gap_direct": [false], "is_magnetic": [false], "is_metal": [true], "is_stable": [true], "nelements": [3], "nsites": [10], "num_magnetic_sites": [0], "num_unique_magnetic_sites": [0], "theoretical": [false], "total_magnetization": [0.0], "total_magnetization_normalized_formula_units": [0.0], "total_magnetization_normalized_vol": [0.0], "uncorrected_energy_per_atom": [-14.23863], "universal_anisotropy": [1.081], "volume": [99.15476], "equilibrium_reaction_energy_per_atom": [-0.02860027]}