{"includesElement": ["", "La", "B", "C"], "includesElement___series_id": [9, 5, 1], "includesElement__abundance_crust": [39.0, 10.0, 200.0], "includesElement__atomic_number": [57, 5, 6], "includesElement__atomic_radius": [195.0, 85.0, 70.0], "includesElement__atomic_radius_rahm": [284.0, 205.0, 190.0], "includesElement__atomic_volume": [22.5, 4.6, 5.3], "includesElement__atomic_weight": [138.9055, 10.81, 12.011], "includesElement__covalent_radius_cordero": [207.0, 84.0, 73.0], "includesElement__covalent_radius_pyykko": [180.0, 85.0, 75.0], "includesElement__covalent_radius_pyykko_double": [139.0, 78.0, 67.0], "includesElement__covalent_radius_pyykko_triple": [139.0, 73.0, 60.0], "includesElement__density": [6.15, 2.34, 2.2], "includesElement__dipole_polarizability": [215.0, 20.5, 11.3], "includesElement__dipole_polarizability_unc": [20.0, 0.1, 0.2], "includesElement__discovery_year": [1839, 1808], "includesElement__electron_affinity": [0.47, 0.279723, 1.262119], "includesElement__electronegativity_allred-rochow": [9.259259e-05, 0.0003598616, 0.0005777778], "includesElement__electronegativity_cottrell-sutton": [0.1290994, 0.1748949, 0.2081666], "includesElement__electronegativity_ghosh": [0.163142, 0.184886, 0.224776], "includesElement__electronegativity_gordy": [0.01666667, 0.03058824, 0.04333333], "includesElement__electronegativity_mulliken": [3.02345, 4.288871, 6.261208], "includesElement__electronegativity_nagle": [0.240747, 0.5269739, 0.7073926], "includesElement__electronegativity_pauling": [1.1, 2.04, 2.55], "includesElement__electronegativity_sanderson": [0.3946505, 0.2546274, 0.427525], "includesElement__en_ghosh": [0.163142, 0.184886, 0.224776], "includesElement__en_pauling": [1.1, 2.04, 2.55], "includesElement__evaporation_heat": [402.0, 504.5], "includesElement__fusion_heat": [8.5, 23.6], "includesElement__glawe_number": [32, 86, 87], "includesElement__group_id": [3, 13, 14], "includesElement__heat_of_formation": [431.0, 565.0, 716.87], "includesElement__is_radioactive": [false], "includesElement__lattice_constant": [3.75, 8.73, 3.57], "includesElement__mendeleev_number": [13, 81, 87], "includesElement__molar_heat_capacity": [27.11, 11.087, 8.517], "includesElement__period": [6, 2], "includesElement__pettifor_number": [33, 86, 95], "includesElement__specific_heat_capacity": [0.195, 1.026, 0.709], "includesElement__vdw_radius": [243.0, 192.0, 170.0], "includesElement__vdw_radius_alvarez": [298.0, 191.0, 177.0], "includesElement__vdw_radius_mm3": [278.0, 215.0, 204.0], "includesElement__vdw_radius_uff": [352.2, 408.3, 385.1], "includesElement__abundance_sea": [3.4e-06, 4.44, 28.0], "includesElement__atomic_weight_uncertainty": [7e-05], "includesElement__c6_gb": [3730.0, 99.2, 47.9], "includesElement__metallic_radius": [169.0, 80.0], "includesElement__metallic_radius_c12": [187.0, 98.0, 86.0], "includesElement__thermal_conductivity": [13.4, 27.4, 1.59], "includesElement__vdw_radius_batsanov": [250.0, 180.0, 170.0], "includesElement__gas_basicity": [991.9], "includesElement__proton_affinity": [1013.0], "includesElement__electronegativity_allen": [12.13, 15.05], "includesElement__en_allen": [12.13, 15.05], "includesElement__c6": [99.5, 46.6], "includesElement__vdw_radius_dreiding": [402.0, 389.83], "includesElement__vdw_radius_truhlar": [192.0], "includesElement__covalent_radius_bragg": [77.0], "includesElement__vdw_radius_bondi": [170.0], "includesElement__vdw_radius_rt": [177.0], "formula": ["B4C4La2"], "spacegroup": ["127"], "thermalConductivity": [20.1604], "icsd": ["94035"], "band_gap": [0.0], "density": [5.285892], "density_atomic": [11.59504], "deprecated": [false], "efermi": [8.773226], "energy_above_hull": [0.0], "energy_per_atom": [-7.788129], "formation_energy_per_atom": [-0.4377051], "is_gap_direct": [false], "is_magnetic": [false], "is_metal": [true], "is_stable": [true], "nelements": [3], "nsites": [10], "num_magnetic_sites": [0], "num_unique_magnetic_sites": [0], "theoretical": [false], "total_magnetization": [0.0], "total_magnetization_normalized_formula_units": [0.0], "total_magnetization_normalized_vol": [0.0], "uncorrected_energy_per_atom": [-13.39849], "volume": [115.9504], "equilibrium_reaction_energy_per_atom": [-0.09982379]}