{"includesElement": ["", "As", "Cu", "Er"], "includesElement___series_id": [5, 8, 9], "includesElement__abundance_crust": [1.8, 60.0, 3.5], "includesElement__atomic_number": [33, 29, 68], "includesElement__atomic_radius": [115.0, 135.0, 175.0], "includesElement__atomic_radius_rahm": [231.0, 217.0, 272.0], "includesElement__atomic_volume": [13.1, 7.1, 18.4], "includesElement__atomic_weight": [74.92159, 63.546, 167.259], "includesElement__covalent_radius_cordero": [119.0, 132.0, 189.0], "includesElement__covalent_radius_pyykko": [121.0, 112.0, 165.0], "includesElement__covalent_radius_pyykko_double": [114.0, 115.0, 133.0], "includesElement__covalent_radius_pyykko_triple": [106.0, 120.0], "includesElement__density": [5.75, 8.96, 9.07], "includesElement__dipole_polarizability": [30.0, 46.5, 150.0], "includesElement__dipole_polarizability_unc": [1.0, 0.5, 10.0], "includesElement__electron_affinity": [0.804, 1.235], "includesElement__electronegativity_allred-rochow": [0.0004302985, 0.0002949617, 0.0001046832], "includesElement__electronegativity_cottrell-sutton": [0.22818, 0.1817573, 0.1314257], "includesElement__electronegativity_ghosh": [0.2068208, 0.1511716, 0.212261], "includesElement__electronegativity_gordy": [0.05206612, 0.03303571, 0.01727273], "includesElement__electronegativity_mulliken": [5.2965, 4.48069, 3.05385], "includesElement__electronegativity_nagle": [0.5503212, 0.6184623, 0.4536061], "includesElement__electronegativity_pauling": [2.18, 1.9, 1.24], "includesElement__electronegativity_sanderson": [0.8253373, 0.9175542, 0.5576573], "includesElement__en_ghosh": [0.2068208, 0.1511716, 0.212261], "includesElement__en_pauling": [2.18, 1.9, 1.24], "includesElement__evaporation_heat": [32.4, 304.6, 317.0], "includesElement__glawe_number": [90, 68, 22], "includesElement__group_id": [15, 11], "includesElement__heat_of_formation": [302.5, 337.4, 316.4], "includesElement__is_radioactive": [false], "includesElement__lattice_constant": [4.13, 3.61, 3.56], "includesElement__mendeleev_number": [95, 71, 35], "includesElement__molar_heat_capacity": [24.64, 24.44, 28.12], "includesElement__period": [4, 6], "includesElement__pettifor_number": [89, 72, 23], "includesElement__specific_heat_capacity": [0.329, 0.385, 0.168], "includesElement__vdw_radius": [185.0, 196.0, 229.0], "includesElement__vdw_radius_alvarez": [188.0, 238.0, 283.0], "includesElement__vdw_radius_mm3": [236.0, 226.0, 267.0], "includesElement__vdw_radius_uff": [423.0, 349.5, 339.1], "includesElement__abundance_sea": [0.0037, 0.00025, 8.7e-07], "includesElement__atomic_weight_uncertainty": [6e-06, 0.003], "includesElement__c6_gb": [260.0, 264.0, 2150.0], "includesElement__covalent_radius_bragg": [126.0, 137.0], "includesElement__electronegativity_allen": [13.08, 10.96], "includesElement__en_allen": [13.08, 10.96], "includesElement__metallic_radius": [121.0, 118.0], "includesElement__metallic_radius_c12": [148.0, 128.0], "includesElement__vdw_radius_batsanov": [205.0, 200.0], "includesElement__c6": [246.0, 253.0], "includesElement__is_monoisotopic": [true], "includesElement__vdw_radius_dreiding": [415.0], "includesElement__vdw_radius_bondi": [185.0], "includesElement__fusion_heat": [13.01], "includesElement__thermal_conductivity": [401.0], "includesElement__gas_basicity": [632.4], "includesElement__proton_affinity": [655.3], "includesElement__discovery_year": [1843], "formula": ["As4Cu2Er2"], "spacegroup": ["129"], "thermalConductivity": [4.67038], "icsd": ["412553"], "band_gap": [0.0], "density": [8.663213], "density_atomic": [18.24038], "deprecated": [false], "efermi": [5.8323], "energy_above_hull": [0.0], "energy_per_atom": [-19.45563], "formation_energy_per_atom": [-0.9088039], "is_gap_direct": [false], "is_magnetic": [false], "is_metal": [true], "is_stable": [true], "nelements": [3], "nsites": [8], "num_magnetic_sites": [0], "num_unique_magnetic_sites": [0], "theoretical": [false], "total_magnetization": [1e-07], "total_magnetization_normalized_formula_units": [5e-08], "total_magnetization_normalized_vol": [6.852927e-10], "uncorrected_energy_per_atom": [-19.45563], "volume": [145.923], "equilibrium_reaction_energy_per_atom": [-0.01807967]}