{"includesElement": ["", "Ni", "Ba", "Al"], "includesElement___series_id": [8, 4, 7], "includesElement__abundance_crust": [84.0, 425.0, 82300.0], "includesElement__atomic_number": [28, 56, 13], "includesElement__atomic_radius": [135.0, 215.0, 125.0], "includesElement__atomic_radius_rahm": [229.0, 293.0, 239.0], "includesElement__atomic_volume": [6.6, 39.0, 10.0], "includesElement__atomic_weight": [58.6934, 137.327, 26.98154], "includesElement__covalent_radius_cordero": [124.0, 215.0, 121.0], "includesElement__covalent_radius_pyykko": [110.0, 196.0, 126.0], "includesElement__covalent_radius_pyykko_double": [101.0, 161.0, 113.0], "includesElement__covalent_radius_pyykko_triple": [101.0, 149.0, 111.0], "includesElement__density": [8.9, 3.62, 2.7], "includesElement__dipole_polarizability": [49.0, 272.0, 57.8], "includesElement__dipole_polarizability_unc": [3.0, 10.0, 1.0], "includesElement__discovery_year": [1751, 1808, 1825], "includesElement__electron_affinity": [1.156, 0.14462, 0.43283], "includesElement__electronegativity_allred-rochow": [0.0003347107, 7.418784e-05, 0.0002204586], "includesElement__electronegativity_cottrell-sutton": [0.1918806, 0.1205853, 0.1666667], "includesElement__electronegativity_ghosh": [0.1472068, 0.1586786, 0.150078], "includesElement__electronegativity_gordy": [0.03681818, 0.01454082, 0.02777778], "includesElement__electronegativity_mulliken": [4.397939, 2.678142, 3.209299], "includesElement__electronegativity_nagle": [0.588755, 0.1944556, 0.3730192], "includesElement__electronegativity_pauling": [1.91, 0.89, 1.61], "includesElement__electronegativity_sanderson": [0.937704, 0.3032951, 0.2360927], "includesElement__en_ghosh": [0.1472068, 0.1586786, 0.150078], "includesElement__en_pauling": [1.91, 0.89, 1.61], "includesElement__evaporation_heat": [378.6, 142.0, 284.1], "includesElement__fusion_heat": [17.61, 7.66, 10.75], "includesElement__glawe_number": [69, 14, 78], "includesElement__group_id": [10, 2, 13], "includesElement__heat_of_formation": [430.1, 179.1, 330.9], "includesElement__is_radioactive": [false], "includesElement__lattice_constant": [3.52, 5.02, 4.05], "includesElement__mendeleev_number": [67, 9, 82], "includesElement__molar_heat_capacity": [26.07, 28.07, 24.2], "includesElement__period": [4, 6, 3], "includesElement__pettifor_number": [67, 14, 80], "includesElement__specific_heat_capacity": [0.444, 0.204, 0.897], "includesElement__vdw_radius": [197.0, 268.0, 184.0], "includesElement__vdw_radius_alvarez": [240.0, 303.0, 225.0], "includesElement__vdw_radius_mm3": [222.0, 307.0, 236.0], "includesElement__vdw_radius_uff": [283.4, 370.3, 449.9], "includesElement__abundance_sea": [0.00056, 0.013, 0.002], "includesElement__atomic_weight_uncertainty": [0.0004, 0.007, 7e-07], "includesElement__c6_gb": [393.0, 5540.0, 520.0], "includesElement__covalent_radius_bragg": [135.0, 210.0], "includesElement__electronegativity_allen": [11.13, 5.211, 9.539], "includesElement__en_allen": [11.13, 5.211, 9.539], "includesElement__metallic_radius": [115.0, 198.0, 125.0], "includesElement__metallic_radius_c12": [124.0, 222.0, 143.0], "includesElement__thermal_conductivity": [90.9, 237.0], "includesElement__vdw_radius_batsanov": [200.0, 270.0, 210.0], "includesElement__c6": [373.0, 528.0], "includesElement__gas_basicity": [714.1], "includesElement__proton_affinity": [737.0], "includesElement__vdw_radius_truhlar": [268.0, 184.0], "includesElement__is_monoisotopic": [true], "includesElement__vdw_radius_dreiding": [439.0], "formula": ["Al9Ba1Ni2"], "spacegroup": ["191"], "thermalConductivity": [4.13762], "icsd": ["107746"], "band_gap": [0.0], "density": [3.853582], "density_atomic": [17.86644], "deprecated": [false], "efermi": [6.932229], "energy_above_hull": [0.004556506], "energy_per_atom": [-4.293521], "formation_energy_per_atom": [-0.3610683], "homogeneous_poisson": [0.281], "is_gap_direct": [false], "is_magnetic": [false], "is_metal": [true], "is_stable": [false], "nelements": [3], "nsites": [12], "num_magnetic_sites": [0], "num_unique_magnetic_sites": [0], "theoretical": [false], "total_magnetization": [7e-07], "total_magnetization_normalized_formula_units": [7e-07], "total_magnetization_normalized_vol": [3.264967e-09], "uncorrected_energy_per_atom": [-9.643954], "universal_anisotropy": [0.219], "volume": [214.3973]}