{"includesElement": ["", "Al", "Zr", "Co"], "includesElement___series_id": [7, 8], "includesElement__abundance_crust": [82300.0, 165.0, 25.0], "includesElement__atomic_number": [13, 40, 27], "includesElement__atomic_radius": [125.0, 155.0, 135.0], "includesElement__atomic_radius_rahm": [239.0, 269.0, 233.0], "includesElement__atomic_volume": [10.0, 14.1, 6.7], "includesElement__atomic_weight": [26.98154, 91.224, 58.93319], "includesElement__covalent_radius_cordero": [121.0, 175.0, 138.0], "includesElement__covalent_radius_pyykko": [126.0, 154.0, 111.0], "includesElement__covalent_radius_pyykko_double": [113.0, 127.0, 103.0], "includesElement__covalent_radius_pyykko_triple": [111.0, 121.0, 96.0], "includesElement__density": [2.7, 6.52, 8.86], "includesElement__dipole_polarizability": [57.8, 112.0, 55.0], "includesElement__dipole_polarizability_unc": [1.0, 13.0, 4.0], "includesElement__discovery_year": [1825, 1789, 1739], "includesElement__electron_affinity": [0.43283, 0.426, 0.6622565], "includesElement__electronegativity_allred-rochow": [0.0002204586, 0.0001328217, 0.0003165327], "includesElement__electronegativity_cottrell-sutton": [0.1666667, 0.1430194, 0.1874437], "includesElement__electronegativity_ghosh": [0.150078, 0.1248887, 0.1432363], "includesElement__electronegativity_gordy": [0.02777778, 0.02045455, 0.03513514], "includesElement__electronegativity_mulliken": [3.209299, 3.52995, 4.271633], "includesElement__electronegativity_nagle": [0.3730192, 0.3293169, 0.5469655], "includesElement__electronegativity_pauling": [1.61, 1.33, 1.88], "includesElement__electronegativity_sanderson": [0.2360927, 0.4744467, 0.8832424], "includesElement__en_ghosh": [0.150078, 0.1248887, 0.1432363], "includesElement__en_pauling": [1.61, 1.33, 1.88], "includesElement__evaporation_heat": [284.1, 567.0, 389.1], "includesElement__fusion_heat": [10.75, 19.2, 15.48], "includesElement__glawe_number": [78, 49, 70], "includesElement__group_id": [13, 4, 9], "includesElement__heat_of_formation": [330.9, 610.0, 426.7], "includesElement__is_radioactive": [false], "includesElement__lattice_constant": [4.05, 3.23, 2.51], "includesElement__mendeleev_number": [82, 44, 63], "includesElement__molar_heat_capacity": [24.2, 25.36, 24.81], "includesElement__period": [3, 5, 4], "includesElement__pettifor_number": [80, 49, 64], "includesElement__specific_heat_capacity": [0.897, 0.278, 0.421], "includesElement__vdw_radius": [184.0, 223.0, 200.0], "includesElement__vdw_radius_alvarez": [225.0, 252.0, 240.0], "includesElement__vdw_radius_mm3": [236.0, 254.0, 223.0], "includesElement__vdw_radius_uff": [449.9, 312.4, 287.2], "includesElement__abundance_sea": [0.002, 3e-05, 2e-05], "includesElement__atomic_weight_uncertainty": [7e-07, 0.002, 4e-06], "includesElement__c6_gb": [520.0, 1360.0, 461.0], "includesElement__covalent_radius_bragg": [135.0, 137.0], "includesElement__electronegativity_allen": [9.539, 7.808, 10.86], "includesElement__en_allen": [9.539, 7.808, 10.86], "includesElement__metallic_radius": [125.0, 145.0, 116.0], "includesElement__metallic_radius_c12": [143.0, 160.0, 125.0], "includesElement__thermal_conductivity": [237.0, 22.7, 100.0], "includesElement__vdw_radius_batsanov": [210.0, 230.0, 200.0], "includesElement__c6": [528.0, 408.0], "includesElement__is_monoisotopic": [true], "includesElement__vdw_radius_dreiding": [439.0], "includesElement__vdw_radius_truhlar": [184.0], "includesElement__gas_basicity": [719.8], "includesElement__proton_affinity": [742.7], "formula": ["Al2Co1Zr6"], "spacegroup": ["189"], "thermalConductivity": [7.86888], "icsd": ["150575"], "band_gap": [0.0], "density": [6.052919], "density_atomic": [20.12536], "deprecated": [false], "efermi": [4.742654], "energy_above_hull": [0.0], "energy_per_atom": [-7.663522], "formation_energy_per_atom": [-0.3401029], "homogeneous_poisson": [0.289], "is_gap_direct": [false], "is_magnetic": [false], "is_metal": [true], "is_stable": [true], "nelements": [3], "nsites": [9], "num_magnetic_sites": [0], "num_unique_magnetic_sites": [0], "theoretical": [false], "total_magnetization": [0.0100234], "total_magnetization_normalized_formula_units": [0.0100234], "total_magnetization_normalized_vol": [5.533868e-05], "uncorrected_energy_per_atom": [-18.47869], "universal_anisotropy": [0.004], "volume": [181.1283], "equilibrium_reaction_energy_per_atom": [-0.006446292]}