{"includesElement": ["", "Ba", "Al", "Si"], "includesElement___series_id": [4, 7, 5], "includesElement__abundance_crust": [425.0, 82300.0, 282000.0], "includesElement__atomic_number": [56, 13, 14], "includesElement__atomic_radius": [215.0, 125.0, 110.0], "includesElement__atomic_radius_rahm": [293.0, 239.0, 232.0], "includesElement__atomic_volume": [39.0, 10.0, 12.1], "includesElement__atomic_weight": [137.327, 26.98154, 28.085], "includesElement__covalent_radius_cordero": [215.0, 121.0, 111.0], "includesElement__covalent_radius_pyykko": [196.0, 126.0, 116.0], "includesElement__covalent_radius_pyykko_double": [161.0, 113.0, 107.0], "includesElement__covalent_radius_pyykko_triple": [149.0, 111.0, 102.0], "includesElement__density": [3.62, 2.7, 2.3296], "includesElement__dipole_polarizability": [272.0, 57.8, 37.3], "includesElement__dipole_polarizability_unc": [10.0, 1.0, 0.7], "includesElement__discovery_year": [1808, 1825, 1824], "includesElement__electron_affinity": [0.14462, 0.43283, 1.389521], "includesElement__electronegativity_allred-rochow": [7.418784e-05, 0.0002204586, 0.0003084126], "includesElement__electronegativity_cottrell-sutton": [0.1205853, 0.1666667, 0.1891451], "includesElement__electronegativity_ghosh": [0.1586786, 0.150078, 0.178503], "includesElement__electronegativity_gordy": [0.01454082, 0.02777778, 0.03577586], "includesElement__electronegativity_mulliken": [2.678142, 3.209299, 4.770602], "includesElement__electronegativity_nagle": [0.1944556, 0.3730192, 0.4750986], "includesElement__electronegativity_pauling": [0.89, 1.61, 1.9], "includesElement__electronegativity_sanderson": [0.3032951, 0.2360927, 0.3468158], "includesElement__en_ghosh": [0.1586786, 0.150078, 0.178503], "includesElement__en_pauling": [0.89, 1.61, 1.9], "includesElement__evaporation_heat": [142.0, 284.1, 383.0], "includesElement__fusion_heat": [7.66, 10.75, 50.6], "includesElement__glawe_number": [14, 78, 85], "includesElement__group_id": [2, 13, 14], "includesElement__heat_of_formation": [179.1, 330.9, 450.0], "includesElement__is_radioactive": [false], "includesElement__lattice_constant": [5.02, 4.05, 5.43], "includesElement__mendeleev_number": [9, 82, 88], "includesElement__molar_heat_capacity": [28.07, 24.2, 19.99], "includesElement__period": [6, 3], "includesElement__pettifor_number": [14, 80, 85], "includesElement__specific_heat_capacity": [0.204, 0.897, 0.712], "includesElement__vdw_radius": [268.0, 184.0, 210.0], "includesElement__vdw_radius_alvarez": [303.0, 225.0, 219.0], "includesElement__vdw_radius_mm3": [307.0, 236.0, 229.0], "includesElement__vdw_radius_uff": [370.3, 449.9, 429.5], "includesElement__abundance_sea": [0.013, 0.002, 2.2], "includesElement__atomic_weight_uncertainty": [0.007, 7e-07], "includesElement__c6_gb": [5540.0, 520.0, 308.0], "includesElement__covalent_radius_bragg": [210.0, 135.0, 117.0], "includesElement__electronegativity_allen": [5.211, 9.539, 11.33], "includesElement__en_allen": [5.211, 9.539, 11.33], "includesElement__metallic_radius": [198.0, 125.0, 117.0], "includesElement__metallic_radius_c12": [222.0, 143.0, 138.0], "includesElement__vdw_radius_batsanov": [270.0, 210.0], "includesElement__vdw_radius_truhlar": [268.0, 184.0], "includesElement__thermal_conductivity": [237.0, 149.0], "includesElement__c6": [528.0, 305.0], "includesElement__is_monoisotopic": [true], "includesElement__vdw_radius_dreiding": [439.0, 427.0], "includesElement__gas_basicity": [814.1], "includesElement__proton_affinity": [837.0], "includesElement__vdw_radius_bondi": [210.0], "formula": ["Al1Ba1Si1"], "spacegroup": ["187"], "thermalConductivity": [7.98932], "icsd": ["162866"], "band_gap": [0.0], "density": [3.804338], "density_atomic": [27.99242], "deprecated": [false], "efermi": [3.978884], "energy_above_hull": [0.0], "energy_per_atom": [-4.060804], "formation_energy_per_atom": [-0.3641807], "homogeneous_poisson": [0.195], "is_gap_direct": [false], "is_magnetic": [false], "is_metal": [true], "is_stable": [true], "nelements": [3], "nsites": [3], "num_magnetic_sites": [0], "num_unique_magnetic_sites": [0], "theoretical": [true], "total_magnetization": [0.0002631], "total_magnetization_normalized_formula_units": [0.0002631], "total_magnetization_normalized_vol": [3.132991e-06], "uncorrected_energy_per_atom": [-14.43404], "universal_anisotropy": [0.177], "volume": [83.97725], "equilibrium_reaction_energy_per_atom": [-0.04930163]}