{"includesElement": ["", "Ni", "Al", "Zr"], "includesElement___series_id": [8, 7], "includesElement__abundance_crust": [84.0, 82300.0, 165.0], "includesElement__atomic_number": [28, 13, 40], "includesElement__atomic_radius": [135.0, 125.0, 155.0], "includesElement__atomic_radius_rahm": [229.0, 239.0, 269.0], "includesElement__atomic_volume": [6.6, 10.0, 14.1], "includesElement__atomic_weight": [58.6934, 26.98154, 91.224], "includesElement__covalent_radius_cordero": [124.0, 121.0, 175.0], "includesElement__covalent_radius_pyykko": [110.0, 126.0, 154.0], "includesElement__covalent_radius_pyykko_double": [101.0, 113.0, 127.0], "includesElement__covalent_radius_pyykko_triple": [101.0, 111.0, 121.0], "includesElement__density": [8.9, 2.7, 6.52], "includesElement__dipole_polarizability": [49.0, 57.8, 112.0], "includesElement__dipole_polarizability_unc": [3.0, 1.0, 13.0], "includesElement__discovery_year": [1751, 1825, 1789], "includesElement__electron_affinity": [1.156, 0.43283, 0.426], "includesElement__electronegativity_allred-rochow": [0.0003347107, 0.0002204586, 0.0001328217], "includesElement__electronegativity_cottrell-sutton": [0.1918806, 0.1666667, 0.1430194], "includesElement__electronegativity_ghosh": [0.1472068, 0.150078, 0.1248887], "includesElement__electronegativity_gordy": [0.03681818, 0.02777778, 0.02045455], "includesElement__electronegativity_mulliken": [4.397939, 3.209299, 3.52995], "includesElement__electronegativity_nagle": [0.588755, 0.3730192, 0.3293169], "includesElement__electronegativity_pauling": [1.91, 1.61, 1.33], "includesElement__electronegativity_sanderson": [0.937704, 0.2360927, 0.4744467], "includesElement__en_ghosh": [0.1472068, 0.150078, 0.1248887], "includesElement__en_pauling": [1.91, 1.61, 1.33], "includesElement__evaporation_heat": [378.6, 284.1, 567.0], "includesElement__fusion_heat": [17.61, 10.75, 19.2], "includesElement__glawe_number": [69, 78, 49], "includesElement__group_id": [10, 13, 4], "includesElement__heat_of_formation": [430.1, 330.9, 610.0], "includesElement__is_radioactive": [false], "includesElement__lattice_constant": [3.52, 4.05, 3.23], "includesElement__mendeleev_number": [67, 82, 44], "includesElement__molar_heat_capacity": [26.07, 24.2, 25.36], "includesElement__period": [4, 3, 5], "includesElement__pettifor_number": [67, 80, 49], "includesElement__specific_heat_capacity": [0.444, 0.897, 0.278], "includesElement__vdw_radius": [197.0, 184.0, 223.0], "includesElement__vdw_radius_alvarez": [240.0, 225.0, 252.0], "includesElement__vdw_radius_mm3": [222.0, 236.0, 254.0], "includesElement__vdw_radius_uff": [283.4, 449.9, 312.4], "includesElement__abundance_sea": [0.00056, 0.002, 3e-05], "includesElement__atomic_weight_uncertainty": [0.0004, 7e-07, 0.002], "includesElement__c6_gb": [393.0, 520.0, 1360.0], "includesElement__covalent_radius_bragg": [135.0], "includesElement__electronegativity_allen": [11.13, 9.539, 7.808], "includesElement__en_allen": [11.13, 9.539, 7.808], "includesElement__metallic_radius": [115.0, 125.0, 145.0], "includesElement__metallic_radius_c12": [124.0, 143.0, 160.0], "includesElement__thermal_conductivity": [90.9, 237.0, 22.7], "includesElement__vdw_radius_batsanov": [200.0, 210.0, 230.0], "includesElement__c6": [373.0, 528.0], "includesElement__gas_basicity": [714.1], "includesElement__proton_affinity": [737.0], "includesElement__is_monoisotopic": [true], "includesElement__vdw_radius_dreiding": [439.0], "includesElement__vdw_radius_truhlar": [184.0], "formula": ["Al2Ni1Zr6"], "spacegroup": ["189"], "thermalConductivity": [7.37992], "icsd": ["160911"], "band_gap": [0.0], "density": [5.959994], "density_atomic": [20.43172], "deprecated": [false], "efermi": [4.927145], "energy_above_hull": [0.0165273], "energy_per_atom": [-7.519612], "formation_energy_per_atom": [-0.3465578], "homogeneous_poisson": [0.301], "is_gap_direct": [false], "is_magnetic": [false], "is_metal": [true], "is_stable": [false], "nelements": [3], "nsites": [9], "num_magnetic_sites": [0], "num_unique_magnetic_sites": [0], "theoretical": [true], "total_magnetization": [0.0089303], "total_magnetization_normalized_formula_units": [0.0089303], "total_magnetization_normalized_vol": [4.856446e-05], "uncorrected_energy_per_atom": [-7.519612], "universal_anisotropy": [0.027], "volume": [183.8855]}