{"includesElement": ["", "P", "Li", "Sr"], "includesElement___series_id": [1, 3, 4], "includesElement__abundance_crust": [1050.0, 20.0, 370.0], "includesElement__atomic_number": [15, 3, 38], "includesElement__atomic_radius": [100.0, 145.0, 200.0], "includesElement__atomic_radius_rahm": [223.0, 220.0, 279.0], "includesElement__atomic_volume": [17.0, 13.1, 33.7], "includesElement__atomic_weight": [30.97376, 6.94, 87.62], "includesElement__covalent_radius_cordero": [107.0, 128.0, 195.0], "includesElement__covalent_radius_pyykko": [111.0, 133.0, 185.0], "includesElement__covalent_radius_pyykko_double": [102.0, 124.0, 157.0], "includesElement__covalent_radius_pyykko_triple": [94.0, 139.0], "includesElement__density": [1.823, 0.534, 2.64], "includesElement__dipole_polarizability": [25.0, 164.1125, 197.2], "includesElement__dipole_polarizability_unc": [1.0, 0.0005, 0.2], "includesElement__discovery_year": [1669, 1817, 1790], "includesElement__electron_affinity": [0.746607, 0.618049, 0.048], "includesElement__electronegativity_allred-rochow": [0.0003895788, 7.3492e-05, 8.327246e-05], "includesElement__electronegativity_cottrell-sutton": [0.2079501, 0.09886575, 0.1241185], "includesElement__electronegativity_ghosh": [0.206931, 0.105093, 0.1185082], "includesElement__electronegativity_gordy": [0.04324324, 0.009774436, 0.01540541], "includesElement__electronegativity_mulliken": [5.616646, 3.004882, 2.871434], "includesElement__electronegativity_nagle": [0.5848035, 0.1826499, 0.2164584], "includesElement__electronegativity_pauling": [2.19, 0.98, 0.95], "includesElement__electronegativity_sanderson": [0.4510269, 0.04886793, 0.2631786], "includesElement__en_ghosh": [0.206931, 0.105093, 0.1185082], "includesElement__en_pauling": [2.19, 0.98, 0.95], "includesElement__evaporation_heat": [49.8, 148.0, 144.0], "includesElement__fusion_heat": [2.51, 2.89, 9.2], "includesElement__glawe_number": [89, 12, 15], "includesElement__group_id": [15, 1, 2], "includesElement__heat_of_formation": [316.5, 159.3, 164.0], "includesElement__is_radioactive": [false], "includesElement__lattice_constant": [7.17, 3.49, 6.08], "includesElement__mendeleev_number": [94, 1, 8], "includesElement__molar_heat_capacity": [23.824, 24.86, 26.79], "includesElement__period": [3, 2, 5], "includesElement__pettifor_number": [90, 12, 15], "includesElement__specific_heat_capacity": [0.769, 3.582, 0.306], "includesElement__vdw_radius": [180.0, 182.0, 249.0], "includesElement__vdw_radius_alvarez": [190.0, 212.0, 284.0], "includesElement__vdw_radius_mm3": [222.0, 255.0, 300.0], "includesElement__vdw_radius_uff": [414.7, 245.1, 364.1], "includesElement__abundance_sea": [0.06, 0.18, 7.9], "includesElement__atomic_weight_uncertainty": [5e-09, 0.01], "includesElement__c6_gb": [187.0, 1410.0, 3230.0], "includesElement__electronegativity_allen": [13.33, 5.392, 5.695], "includesElement__en_allen": [13.33, 5.392, 5.695], "includesElement__metallic_radius": [110.0, 123.0, 191.0], "includesElement__metallic_radius_c12": [128.0, 155.0, 215.0], "includesElement__vdw_radius_batsanov": [195.0, 220.0, 255.0], "includesElement__c6": [185.0, 1392.0, 3175.0], "includesElement__is_monoisotopic": [true], "includesElement__vdw_radius_dreiding": [415.0], "includesElement__gas_basicity": [604.8], "includesElement__proton_affinity": [626.8], "includesElement__vdw_radius_bondi": [180.0, 181.0], "includesElement__covalent_radius_bragg": [150.0, 195.0], "includesElement__thermal_conductivity": [84.8], "includesElement__vdw_radius_truhlar": [249.0], "formula": ["Li2P2Sr2"], "spacegroup": ["194"], "thermalConductivity": [6.00183], "icsd": ["416889"], "band_gap": [1.3431], "density": [3.133052], "density_atomic": [22.1781], "deprecated": [false], "efermi": [2.743818], "energy_above_hull": [0.0], "energy_per_atom": [-3.981718], "formation_energy_per_atom": [-0.9761102], "homogeneous_poisson": [0.176], "is_gap_direct": [false], "is_magnetic": [false], "is_metal": [false], "is_stable": [true], "nelements": [3], "nsites": [6], "num_magnetic_sites": [0], "num_unique_magnetic_sites": [0], "theoretical": [false], "total_magnetization": [0.0], "total_magnetization_normalized_formula_units": [0.0], "total_magnetization_normalized_vol": [0.0], "uncorrected_energy_per_atom": [-9.979685], "universal_anisotropy": [0.142], "volume": [133.0686], "cbm": [3.985], "e_electronic": [7.992069], "e_ionic": [15.13691], "e_total": [23.12898], "equilibrium_reaction_energy_per_atom": [-0.05972485], "n": [2.827025], "vbm": [2.6419]}