{"includesElement": ["", "O", "Tb", "Rb"], "includesElement___series_id": [1, 9, 3], "includesElement__abundance_crust": [461000.0, 1.2, 90.0], "includesElement__atomic_number": [8, 65, 37], "includesElement__atomic_radius": [60.0, 175.0, 235.0], "includesElement__atomic_radius_rahm": [171.0, 276.0, 240.0], "includesElement__atomic_volume": [14.0, 19.2, 55.9], "includesElement__atomic_weight": [15.999, 158.9254, 85.4678], "includesElement__covalent_radius_cordero": [66.0, 194.0, 220.0], "includesElement__covalent_radius_pyykko": [63.0, 168.0, 210.0], "includesElement__covalent_radius_pyykko_double": [57.0, 135.0, 202.0], "includesElement__covalent_radius_pyykko_triple": [53.0], "includesElement__density": [0.001308, 8.23, 1.53], "includesElement__dipole_polarizability": [5.3, 170.0, 319.8], "includesElement__dipole_polarizability_unc": [0.2, 20.0, 0.3], "includesElement__discovery_year": [1774, 1843, 1861], "includesElement__electron_affinity": [1.461113, 1.165, 0.48592], "includesElement__electronegativity_allred-rochow": [0.001146384, 0.0001009779, 4.988662e-05], "includesElement__electronegativity_cottrell-sutton": [0.2687419, 0.130247, 0.1023533], "includesElement__electronegativity_ghosh": [0.304575, 0.198863, 0.104686], "includesElement__electronegativity_gordy": [0.07222222, 0.01696429, 0.01047619], "includesElement__electronegativity_mulliken": [7.539584, 3.5144, 2.331524], "includesElement__electronegativity_nagle": [1.042218, 0.4014652, 0.1462314], "includesElement__electronegativity_pauling": [3.44, 0.82], "includesElement__electronegativity_sanderson": [0.9416494, 0.5163695, 0.1764136], "includesElement__en_ghosh": [0.304575, 0.198863, 0.104686], "includesElement__en_pauling": [3.44, 0.82], "includesElement__glawe_number": [97, 25, 9], "includesElement__group_id": [16, 1], "includesElement__heat_of_formation": [249.229, 388.7, 80.9], "includesElement__is_radioactive": [false], "includesElement__lattice_constant": [6.83, 3.6, 5.59], "includesElement__mendeleev_number": [99, 29, 4], "includesElement__molar_heat_capacity": [29.378, 28.91, 31.06], "includesElement__period": [2, 6, 5], "includesElement__pettifor_number": [101, 26, 9], "includesElement__specific_heat_capacity": [0.918, 0.182, 0.363], "includesElement__vdw_radius": [152.0, 233.0, 303.0], "includesElement__vdw_radius_alvarez": [150.0, 279.0, 321.0], "includesElement__vdw_radius_mm3": [182.0, 270.0, 325.0], "includesElement__vdw_radius_uff": [350.0, 345.1, 411.4], "includesElement__abundance_sea": [857000.0, 1.4e-07, 0.12], "includesElement__c6_gb": [16.7, 2590.0, 4660.0], "includesElement__covalent_radius_bragg": [65.0, 225.0], "includesElement__electronegativity_allen": [21.36, 4.177], "includesElement__en_allen": [21.36, 4.177], "includesElement__thermal_conductivity": [0.027, 11.1, 58.2], "includesElement__vdw_radius_batsanov": [155.0, 290.0], "includesElement__c6": [15.6, 4769.0], "includesElement__vdw_radius_dreiding": [340.46], "includesElement__gas_basicity": [459.6], "includesElement__proton_affinity": [485.2], "includesElement__vdw_radius_bondi": [152.0], "includesElement__vdw_radius_rt": [158.0], "includesElement__evaporation_heat": [389.0, 75.8], "includesElement__atomic_weight_uncertainty": [2e-05, 0.0003], "includesElement__is_monoisotopic": [true], "includesElement__fusion_heat": [2.2], "includesElement__metallic_radius": [216.0], "includesElement__metallic_radius_c12": [248.0], "includesElement__vdw_radius_truhlar": [303.0], "formula": ["O6Rb4Tb2"], "spacegroup": ["36"], "thermalConductivity": [1.27197], "icsd": ["1182"], "band_gap": [0.0], "density": [4.694548], "density_atomic": [22.27584], "deprecated": [false], "efermi": [-0.17613], "energy_above_hull": [0.05993751], "energy_per_atom": [-5.867397], "formation_energy_per_atom": [-2.291443], "is_gap_direct": [false], "is_magnetic": [true], "is_metal": [true], "is_stable": [false], "nelements": [3], "nsites": [12], "num_magnetic_sites": [6], "num_unique_magnetic_sites": [2], "theoretical": [false], "total_magnetization": [2.00035], "total_magnetization_normalized_formula_units": [1.000175], "total_magnetization_normalized_vol": [0.007483259], "uncorrected_energy_per_atom": [-5.523897], "volume": [267.31]}