{"includesElement": ["", "Al", "O", "C"], "includesElement___series_id": [7, 1], "includesElement__abundance_crust": [82300.0, 461000.0, 200.0], "includesElement__atomic_number": [13, 8, 6], "includesElement__atomic_radius": [125.0, 60.0, 70.0], "includesElement__atomic_radius_rahm": [239.0, 171.0, 190.0], "includesElement__atomic_volume": [10.0, 14.0, 5.3], "includesElement__atomic_weight": [26.98154, 15.999, 12.011], "includesElement__covalent_radius_cordero": [121.0, 66.0, 73.0], "includesElement__covalent_radius_pyykko": [126.0, 63.0, 75.0], "includesElement__covalent_radius_pyykko_double": [113.0, 57.0, 67.0], "includesElement__covalent_radius_pyykko_triple": [111.0, 53.0, 60.0], "includesElement__density": [2.7, 0.001308, 2.2], "includesElement__dipole_polarizability": [57.8, 5.3, 11.3], "includesElement__dipole_polarizability_unc": [1.0, 0.2], "includesElement__discovery_year": [1825, 1774], "includesElement__electron_affinity": [0.43283, 1.461113, 1.262119], "includesElement__electronegativity_allred-rochow": [0.0002204586, 0.001146384, 0.0005777778], "includesElement__electronegativity_cottrell-sutton": [0.1666667, 0.2687419, 0.2081666], "includesElement__electronegativity_ghosh": [0.150078, 0.304575, 0.224776], "includesElement__electronegativity_gordy": [0.02777778, 0.07222222, 0.04333333], "includesElement__electronegativity_mulliken": [3.209299, 7.539584, 6.261208], "includesElement__electronegativity_nagle": [0.3730192, 1.042218, 0.7073926], "includesElement__electronegativity_pauling": [1.61, 3.44, 2.55], "includesElement__electronegativity_sanderson": [0.2360927, 0.9416494, 0.427525], "includesElement__en_ghosh": [0.150078, 0.304575, 0.224776], "includesElement__en_pauling": [1.61, 3.44, 2.55], "includesElement__evaporation_heat": [284.1], "includesElement__fusion_heat": [10.75], "includesElement__glawe_number": [78, 97, 87], "includesElement__group_id": [13, 16, 14], "includesElement__heat_of_formation": [330.9, 249.229, 716.87], "includesElement__is_radioactive": [false], "includesElement__lattice_constant": [4.05, 6.83, 3.57], "includesElement__mendeleev_number": [82, 99, 87], "includesElement__molar_heat_capacity": [24.2, 29.378, 8.517], "includesElement__period": [3, 2], "includesElement__pettifor_number": [80, 101, 95], "includesElement__specific_heat_capacity": [0.897, 0.918, 0.709], "includesElement__vdw_radius": [184.0, 152.0, 170.0], "includesElement__vdw_radius_alvarez": [225.0, 150.0, 177.0], "includesElement__vdw_radius_mm3": [236.0, 182.0, 204.0], "includesElement__vdw_radius_uff": [449.9, 350.0, 385.1], "includesElement__abundance_sea": [0.002, 857000.0, 28.0], "includesElement__atomic_weight_uncertainty": [7e-07], "includesElement__c6_gb": [520.0, 16.7, 47.9], "includesElement__covalent_radius_bragg": [135.0, 65.0, 77.0], "includesElement__electronegativity_allen": [9.539, 21.36, 15.05], "includesElement__en_allen": [9.539, 21.36, 15.05], "includesElement__metallic_radius": [125.0], "includesElement__metallic_radius_c12": [143.0, 86.0], "includesElement__thermal_conductivity": [237.0, 0.027, 1.59], "includesElement__vdw_radius_batsanov": [210.0, 155.0, 170.0], "includesElement__c6": [528.0, 15.6, 46.6], "includesElement__is_monoisotopic": [true], "includesElement__vdw_radius_dreiding": [439.0, 340.46, 389.83], "includesElement__vdw_radius_truhlar": [184.0], "includesElement__gas_basicity": [459.6], "includesElement__proton_affinity": [485.2], "includesElement__vdw_radius_bondi": [152.0, 170.0], "includesElement__vdw_radius_rt": [158.0, 177.0], "formula": ["Al8C2O8"], "spacegroup": ["36"], "thermalConductivity": [8.40465], "icsd": ["18204"], "band_gap": [3.8233], "density": [2.749442], "density_atomic": [12.34312], "deprecated": [false], "efermi": [3.276982], "energy_above_hull": [0.0], "energy_per_atom": [-7.484179], "formation_energy_per_atom": [-2.593065], "is_gap_direct": [false], "is_magnetic": [false], "is_metal": [false], "is_stable": [true], "nelements": [3], "nsites": [18], "num_magnetic_sites": [0], "num_unique_magnetic_sites": [0], "theoretical": [false], "total_magnetization": [0.0], "total_magnetization_normalized_formula_units": [0.0], "total_magnetization_normalized_vol": [0.0], "uncorrected_energy_per_atom": [-9.300069], "volume": [222.1762], "cbm": [6.9815], "e_electronic": [3.318605], "e_ionic": [2.934245], "e_total": [6.252851], "equilibrium_reaction_energy_per_atom": [-0.03312744], "n": [1.821704], "vbm": [3.1582], "e_ij_max": [0.6789705]}