{"includesElement": ["", "Tl", "Cu", "S"], "includesElement___series_id": [7, 8, 1], "includesElement__abundance_crust": [0.85, 60.0, 350.0], "includesElement__atomic_number": [81, 29, 16], "includesElement__atomic_radius": [190.0, 135.0, 100.0], "includesElement__atomic_radius_rahm": [242.0, 217.0, 214.0], "includesElement__atomic_volume": [17.2, 7.1, 15.5], "includesElement__atomic_weight": [204.38, 63.546, 32.06], "includesElement__covalent_radius_cordero": [145.0, 132.0, 105.0], "includesElement__covalent_radius_pyykko": [144.0, 112.0, 103.0], "includesElement__covalent_radius_pyykko_double": [142.0, 115.0, 94.0], "includesElement__covalent_radius_pyykko_triple": [150.0, 120.0, 95.0], "includesElement__density": [11.8, 8.96, 2.07], "includesElement__dipole_polarizability": [50.0, 46.5, 19.4], "includesElement__dipole_polarizability_unc": [2.0, 0.5, 0.1], "includesElement__discovery_year": [1861], "includesElement__electron_affinity": [0.377, 1.235, 2.077104], "includesElement__electronegativity_allred-rochow": [0.0002411265, 0.0002949617, 0.0005137148], "includesElement__electronegativity_cottrell-sutton": [0.186339, 0.1817573, 0.2300274], "includesElement__electronegativity_ghosh": [0.173447, 0.1511716, 0.23596], "includesElement__electronegativity_gordy": [0.03472222, 0.03303571, 0.05291262], "includesElement__electronegativity_mulliken": [3.242643, 4.48069, 6.218557], "includesElement__electronegativity_nagle": [0.3914868, 0.6184623, 0.6762644], "includesElement__electronegativity_pauling": [1.8, 1.9, 2.58], "includesElement__electronegativity_sanderson": [0.9245096, 0.9175542, 0.6397251], "includesElement__en_ghosh": [0.173447, 0.1511716, 0.23596], "includesElement__en_pauling": [1.8, 1.9, 2.58], "includesElement__evaporation_heat": [162.4, 304.6, 10.5], "includesElement__fusion_heat": [4.31, 13.01, 1.23], "includesElement__glawe_number": [81, 68, 96], "includesElement__group_id": [13, 11, 16], "includesElement__heat_of_formation": [182.2, 337.4, 277.17], "includesElement__is_radioactive": [false], "includesElement__lattice_constant": [3.46, 3.61, 10.47], "includesElement__mendeleev_number": [85, 71, 100], "includesElement__molar_heat_capacity": [26.32, 24.44, 22.7], "includesElement__period": [6, 4, 3], "includesElement__pettifor_number": [78, 72, 94], "includesElement__specific_heat_capacity": [0.129, 0.385, 0.708], "includesElement__vdw_radius": [196.0, 180.0], "includesElement__vdw_radius_alvarez": [247.0, 238.0, 189.0], "includesElement__vdw_radius_mm3": [259.0, 226.0, 215.0], "includesElement__vdw_radius_uff": [434.7, 349.5, 403.5], "includesElement__abundance_sea": [1.9e-05, 0.00025, 905.0], "includesElement__c6_gb": [509.0, 264.0, 140.0], "includesElement__covalent_radius_bragg": [190.0, 137.0, 102.0], "includesElement__metallic_radius": [144.0, 118.0, 104.0], "includesElement__metallic_radius_c12": [160.0, 128.0, 127.0], "includesElement__thermal_conductivity": [46.1, 401.0, 0.27], "includesElement__vdw_radius_batsanov": [220.0, 200.0, 180.0], "includesElement__vdw_radius_bondi": [196.0, 180.0], "includesElement__atomic_weight_uncertainty": [0.003], "includesElement__electronegativity_allen": [10.96, 15.31], "includesElement__en_allen": [10.96, 15.31], "includesElement__c6": [253.0, 134.0], "includesElement__gas_basicity": [632.4, 640.2], "includesElement__proton_affinity": [655.3, 664.3], "includesElement__vdw_radius_dreiding": [403.0], "includesElement__vdw_radius_rt": [181.0], "formula": ["Cu2S4Tl2"], "spacegroup": ["122"], "thermalConductivity": [1.13821], "icsd": ["28742"], "band_gap": [0.0], "density": [6.197608], "density_atomic": [22.24235], "deprecated": [false], "efermi": [4.472915], "energy_above_hull": [0.001781703], "energy_per_atom": [-4.158076], "formation_energy_per_atom": [-0.4712266], "homogeneous_poisson": [0.328], "is_gap_direct": [false], "is_magnetic": [false], "is_metal": [true], "is_stable": [false], "nelements": [3], "nsites": [8], "num_magnetic_sites": [0], "num_unique_magnetic_sites": [0], "theoretical": [false], "total_magnetization": [0.0], "total_magnetization_normalized_formula_units": [0.0], "total_magnetization_normalized_vol": [0.0], "uncorrected_energy_per_atom": [-20.32862], "universal_anisotropy": [1.194], "volume": [177.9388]}