{"includesElement": ["", "Zn", "Ag", "F"], "includesElement___series_id": [8, 6], "includesElement__abundance_crust": [70.0, 0.075, 585.0], "includesElement__atomic_number": [30, 47, 9], "includesElement__atomic_radius": [135.0, 160.0, 50.0], "includesElement__atomic_radius_rahm": [222.0, 225.0, 163.0], "includesElement__atomic_volume": [9.2, 10.3, 17.1], "includesElement__atomic_weight": [65.38, 107.8682, 18.9984], "includesElement__covalent_radius_cordero": [122.0, 145.0, 57.0], "includesElement__covalent_radius_pyykko": [118.0, 128.0, 64.0], "includesElement__covalent_radius_pyykko_double": [120.0, 139.0, 59.0], "includesElement__density": [7.134, 10.5, 0.001553], "includesElement__dipole_polarizability": [38.67, 55.0, 3.74], "includesElement__dipole_polarizability_unc": [0.3, 8.0, 0.08], "includesElement__electronegativity_allred-rochow": [0.0003124102, 0.0002258301, 0.001269531], "includesElement__electronegativity_cottrell-sutton": [0.1920011, 0.1700184, 0.2850439], "includesElement__electronegativity_ghosh": [0.1551518, 0.1472165, 0.344443], "includesElement__electronegativity_gordy": [0.03686441, 0.02890625, 0.08125], "includesElement__electronegativity_mulliken": [4.6971, 4.439117, 10.412], "includesElement__electronegativity_nagle": [0.6770213, 0.5848035, 1.232373], "includesElement__electronegativity_pauling": [1.65, 1.93, 3.98], "includesElement__electronegativity_sanderson": [0.8100877, 0.9437955, 1.017681], "includesElement__en_ghosh": [0.1551518, 0.1472165, 0.344443], "includesElement__en_pauling": [1.65, 1.93, 3.98], "includesElement__evaporation_heat": [114.8, 254.1, 6.54], "includesElement__fusion_heat": [7.28, 11.95, 0.51], "includesElement__glawe_number": [74, 67, 102], "includesElement__group_id": [12, 11, 17], "includesElement__heat_of_formation": [130.4, 284.9, 79.335], "includesElement__is_radioactive": [false], "includesElement__lattice_constant": [2.66, 4.09], "includesElement__mendeleev_number": [77, 72, 106], "includesElement__molar_heat_capacity": [25.39, 25.35, 31.304], "includesElement__period": [4, 5, 2], "includesElement__pettifor_number": [76, 71, 102], "includesElement__specific_heat_capacity": [0.388, 0.235, 0.824], "includesElement__vdw_radius": [201.0, 211.0, 147.0], "includesElement__vdw_radius_alvarez": [239.0, 253.0, 146.0], "includesElement__vdw_radius_mm3": [229.0, 243.0, 171.0], "includesElement__vdw_radius_uff": [276.3, 314.8, 336.4], "includesElement__abundance_sea": [0.0049, 4e-05, 1.3], "includesElement__atomic_weight_uncertainty": [0.02, 0.0002, 6e-09], "includesElement__c6_gb": [276.0, 341.0, 10.2], "includesElement__covalent_radius_bragg": [132.0, 177.0, 67.0], "includesElement__electronegativity_allen": [9.395, 11.05, 24.8], "includesElement__en_allen": [9.395, 11.05, 24.8], "includesElement__metallic_radius": [121.0, 134.0], "includesElement__metallic_radius_c12": [134.0, 144.0], "includesElement__thermal_conductivity": [116.0, 429.0, 0.028], "includesElement__vdw_radius_batsanov": [210.0, 150.0], "includesElement__c6": [284.0, 9.52], "includesElement__gas_basicity": [586.0, 315.1], "includesElement__proton_affinity": [608.6, 340.1], "includesElement__covalent_radius_pyykko_triple": [137.0, 53.0], "includesElement__electron_affinity": [1.302, 3.40119], "includesElement__discovery_year": [1886], "includesElement__is_monoisotopic": [true], "includesElement__vdw_radius_dreiding": [347.2], "includesElement__vdw_radius_bondi": [147.0], "includesElement__vdw_radius_rt": [146.0], "formula": ["Ag1F3Zn1"], "spacegroup": ["221"], "thermalConductivity": [2.57892], "icsd": ["28950"], "band_gap": [1.5852], "density": [5.658776], "density_atomic": [13.51445], "deprecated": [false], "efermi": [-0.7354698], "energy_above_hull": [0.05357189], "energy_per_atom": [-9.861296], "formation_energy_per_atom": [-1.933807], "homogeneous_poisson": [0.36], "is_gap_direct": [false], "is_magnetic": [false], "is_metal": [false], "is_stable": [false], "nelements": [3], "nsites": [5], "num_magnetic_sites": [0], "num_unique_magnetic_sites": [0], "theoretical": [false], "total_magnetization": [7.7e-06], "total_magnetization_normalized_formula_units": [7.7e-06], "total_magnetization_normalized_vol": [1.139521e-07], "uncorrected_energy_per_atom": [-3.689992], "universal_anisotropy": [0.401], "volume": [67.57227], "cbm": [0.6359], "vbm": [-0.9493]}