{"includesElement": ["", "Zn", "O", "Nb"], "includesElement___series_id": [8, 1], "includesElement__abundance_crust": [70.0, 461000.0, 20.0], "includesElement__atomic_number": [30, 8, 41], "includesElement__atomic_radius": [135.0, 60.0, 145.0], "includesElement__atomic_radius_rahm": [222.0, 171.0, 251.0], "includesElement__atomic_volume": [9.2, 14.0, 10.8], "includesElement__atomic_weight": [65.38, 15.999, 92.90637], "includesElement__covalent_radius_cordero": [122.0, 66.0, 164.0], "includesElement__covalent_radius_pyykko": [118.0, 63.0, 147.0], "includesElement__covalent_radius_pyykko_double": [120.0, 57.0, 125.0], "includesElement__density": [7.134, 0.001308, 8.57], "includesElement__dipole_polarizability": [38.67, 5.3, 98.0], "includesElement__dipole_polarizability_unc": [0.3, 0.2, 8.0], "includesElement__electronegativity_allred-rochow": [0.0003124102, 0.001146384, 0.0001295756], "includesElement__electronegativity_cottrell-sutton": [0.1920011, 0.2687419, 0.1380131], "includesElement__electronegativity_ghosh": [0.1551518, 0.304575, 0.1280782], "includesElement__electronegativity_gordy": [0.03686441, 0.07222222, 0.01904762], "includesElement__electronegativity_mulliken": [4.6971, 7.539584, 3.838128], "includesElement__electronegativity_nagle": [0.6770213, 1.042218, 0.3708924], "includesElement__electronegativity_pauling": [1.65, 3.44, 1.6], "includesElement__electronegativity_sanderson": [0.8100877, 0.9416494, 0.5561695], "includesElement__en_ghosh": [0.1551518, 0.304575, 0.1280782], "includesElement__en_pauling": [1.65, 3.44, 1.6], "includesElement__evaporation_heat": [114.8, 680.0], "includesElement__fusion_heat": [7.28, 26.8], "includesElement__glawe_number": [74, 97, 53], "includesElement__group_id": [12, 16, 5], "includesElement__heat_of_formation": [130.4, 249.229, 733.0], "includesElement__is_radioactive": [false], "includesElement__lattice_constant": [2.66, 6.83, 3.3], "includesElement__mendeleev_number": [77, 99, 48], "includesElement__molar_heat_capacity": [25.39, 29.378, 24.6], "includesElement__period": [4, 2, 5], "includesElement__pettifor_number": [76, 101, 52], "includesElement__specific_heat_capacity": [0.388, 0.918, 0.265], "includesElement__vdw_radius": [201.0, 152.0, 218.0], "includesElement__vdw_radius_alvarez": [239.0, 150.0, 256.0], "includesElement__vdw_radius_mm3": [229.0, 182.0, 243.0], "includesElement__vdw_radius_uff": [276.3, 350.0, 316.5], "includesElement__abundance_sea": [0.0049, 857000.0, 1e-05], "includesElement__atomic_weight_uncertainty": [0.02, 2e-05], "includesElement__c6_gb": [276.0, 16.7, 1140.0], "includesElement__covalent_radius_bragg": [132.0, 65.0], "includesElement__electronegativity_allen": [9.395, 21.36, 8.34], "includesElement__en_allen": [9.395, 21.36, 8.34], "includesElement__metallic_radius": [121.0, 134.0], "includesElement__metallic_radius_c12": [134.0, 146.0], "includesElement__thermal_conductivity": [116.0, 0.027, 53.7], "includesElement__vdw_radius_batsanov": [210.0, 155.0, 215.0], "includesElement__c6": [284.0, 15.6], "includesElement__gas_basicity": [586.0, 459.6], "includesElement__proton_affinity": [608.6, 485.2], "includesElement__covalent_radius_pyykko_triple": [53.0, 116.0], "includesElement__discovery_year": [1774, 1801], "includesElement__electron_affinity": [1.461113, 0.917406], "includesElement__vdw_radius_dreiding": [340.46], "includesElement__vdw_radius_bondi": [152.0], "includesElement__vdw_radius_rt": [158.0], "includesElement__is_monoisotopic": [true], "formula": ["Nb8O24Zn4"], "spacegroup": ["60"], "thermalConductivity": [4.53052], "icsd": ["36290"], "band_gap": [3.2845], "density": [5.539508], "density_atomic": [11.56479], "deprecated": [false], "efermi": [1.424853], "energy_above_hull": [0.0], "energy_per_atom": [-8.448133], "formation_energy_per_atom": [-2.761918], "homogeneous_poisson": [0.32], "is_gap_direct": [false], "is_magnetic": [false], "is_metal": [false], "is_stable": [true], "nelements": [3], "nsites": [36], "num_magnetic_sites": [0], "num_unique_magnetic_sites": [0], "theoretical": [false], "total_magnetization": [0.0], "total_magnetization_normalized_formula_units": [0.0], "total_magnetization_normalized_vol": [0.0], "uncorrected_energy_per_atom": [-13.00327], "universal_anisotropy": [0.172], "volume": [416.3325], "cbm": [4.6418], "equilibrium_reaction_energy_per_atom": [-0.006871488], "vbm": [1.3573]}