{"includesElement": ["", "Ni", "Na", "O"], "includesElement___series_id": [8, 3, 1], "includesElement__abundance_crust": [84.0, 23600.0, 461000.0], "includesElement__atomic_number": [28, 11, 8], "includesElement__atomic_radius": [135.0, 180.0, 60.0], "includesElement__atomic_radius_rahm": [229.0, 225.0, 171.0], "includesElement__atomic_volume": [6.6, 23.7, 14.0], "includesElement__atomic_weight": [58.6934, 22.98977, 15.999], "includesElement__covalent_radius_cordero": [124.0, 166.0, 66.0], "includesElement__covalent_radius_pyykko": [110.0, 155.0, 63.0], "includesElement__covalent_radius_pyykko_double": [101.0, 160.0, 57.0], "includesElement__covalent_radius_pyykko_triple": [101.0, 53.0], "includesElement__density": [8.9, 0.97, 0.001308], "includesElement__dipole_polarizability": [49.0, 162.7, 5.3], "includesElement__dipole_polarizability_unc": [3.0, 0.5, 0.2], "includesElement__discovery_year": [1751, 1807, 1774], "includesElement__electron_affinity": [1.156, 0.547926, 1.461113], "includesElement__electronegativity_allred-rochow": [0.0003347107, 9.157128e-05, 0.001146384], "includesElement__electronegativity_cottrell-sutton": [0.1918806, 0.1191367, 0.2687419], "includesElement__electronegativity_ghosh": [0.1472068, 0.093214, 0.304575], "includesElement__electronegativity_gordy": [0.03681818, 0.01419355, 0.07222222], "includesElement__electronegativity_mulliken": [4.397939, 2.843501, 7.539584], "includesElement__electronegativity_nagle": [0.588755, 0.1831769, 1.042218], "includesElement__electronegativity_pauling": [1.91, 0.93, 3.44], "includesElement__electronegativity_sanderson": [0.937704, 0.09459764, 0.9416494], "includesElement__en_ghosh": [0.1472068, 0.093214, 0.304575], "includesElement__en_pauling": [1.91, 0.93, 3.44], "includesElement__evaporation_heat": [378.6, 97.9], "includesElement__fusion_heat": [17.61, 2.64], "includesElement__glawe_number": [69, 11, 97], "includesElement__group_id": [10, 1, 16], "includesElement__heat_of_formation": [430.1, 107.5, 249.229], "includesElement__is_radioactive": [false], "includesElement__lattice_constant": [3.52, 4.23, 6.83], "includesElement__mendeleev_number": [67, 2, 99], "includesElement__molar_heat_capacity": [26.07, 28.23, 29.378], "includesElement__period": [4, 3, 2], "includesElement__pettifor_number": [67, 11, 101], "includesElement__specific_heat_capacity": [0.444, 1.228, 0.918], "includesElement__vdw_radius": [197.0, 227.0, 152.0], "includesElement__vdw_radius_alvarez": [240.0, 250.0, 150.0], "includesElement__vdw_radius_mm3": [222.0, 270.0, 182.0], "includesElement__vdw_radius_uff": [283.4, 298.3, 350.0], "includesElement__abundance_sea": [0.00056, 10800.0, 857000.0], "includesElement__atomic_weight_uncertainty": [0.0004, 2e-08], "includesElement__c6_gb": [393.0, 1570.0, 16.7], "includesElement__covalent_radius_bragg": [135.0, 177.0, 65.0], "includesElement__electronegativity_allen": [11.13, 5.14, 21.36], "includesElement__en_allen": [11.13, 5.14, 21.36], "includesElement__metallic_radius": [115.0, 157.0], "includesElement__metallic_radius_c12": [124.0, 190.0], "includesElement__thermal_conductivity": [90.9, 142.0, 0.027], "includesElement__vdw_radius_batsanov": [200.0, 240.0, 155.0], "includesElement__c6": [373.0, 1518.0, 15.6], "includesElement__gas_basicity": [714.1, 459.6], "includesElement__proton_affinity": [737.0, 485.2], "includesElement__is_monoisotopic": [true], "includesElement__vdw_radius_bondi": [227.0, 152.0], "includesElement__vdw_radius_dreiding": [340.46], "includesElement__vdw_radius_rt": [158.0], "formula": ["Na4Ni2O4"], "spacegroup": ["36"], "thermalConductivity": [2.61306], "icsd": ["14159"], "band_gap": [0.5999], "density": [3.735597], "density_atomic": [12.1506], "deprecated": [false], "efermi": [3.740678], "energy_above_hull": [0.04304881], "energy_per_atom": [-4.971529], "formation_energy_per_atom": [-1.297907], "is_gap_direct": [false], "is_magnetic": [false], "is_metal": [false], "is_stable": [false], "nelements": [3], "nsites": [10], "num_magnetic_sites": [0], "num_unique_magnetic_sites": [0], "theoretical": [false], "total_magnetization": [0.0004302], "total_magnetization_normalized_formula_units": [0.0002151], "total_magnetization_normalized_vol": [3.540565e-06], "uncorrected_energy_per_atom": [-4.188529], "volume": [121.506], "cbm": [4.4905], "vbm": [3.8906]}