{"includesElement": ["", "Mg", "O", "Cr"], "includesElement___series_id": [4, 1, 8], "includesElement__abundance_crust": [23300.0, 461000.0, 102.0], "includesElement__atomic_number": [12, 8, 24], "includesElement__atomic_radius": [150.0, 60.0, 140.0], "includesElement__atomic_radius_rahm": [240.0, 171.0, 233.0], "includesElement__atomic_volume": [14.0, 7.23], "includesElement__atomic_weight": [24.305, 15.999, 51.9961], "includesElement__covalent_radius_cordero": [141.0, 66.0, 139.0], "includesElement__covalent_radius_pyykko": [139.0, 63.0, 122.0], "includesElement__covalent_radius_pyykko_double": [132.0, 57.0, 111.0], "includesElement__covalent_radius_pyykko_triple": [127.0, 53.0, 103.0], "includesElement__density": [1.74, 0.001308, 7.15], "includesElement__dipole_polarizability": [71.2, 5.3, 83.0], "includesElement__dipole_polarizability_unc": [0.4, 0.2, 12.0], "includesElement__discovery_year": [1808, 1774, 1797], "includesElement__electronegativity_allred-rochow": [0.0001475079, 0.001146384, 0.0001981994], "includesElement__electronegativity_cottrell-sutton": [0.1431908, 0.2687419, 0.1555003], "includesElement__electronegativity_ghosh": [0.121644, 0.304575, 0.1313053], "includesElement__electronegativity_gordy": [0.0205036, 0.07222222, 0.02418033], "includesElement__electronegativity_mulliken": [3.823117, 7.539584, 3.716255], "includesElement__electronegativity_nagle": [0.3039835, 1.042218, 0.4165729], "includesElement__electronegativity_pauling": [1.31, 3.44, 1.66], "includesElement__electronegativity_sanderson": [0.1524211, 0.9416494, 0.6017723], "includesElement__en_ghosh": [0.121644, 0.304575, 0.1313053], "includesElement__en_pauling": [1.31, 3.44, 1.66], "includesElement__evaporation_heat": [131.8, 342.0], "includesElement__fusion_heat": [9.2, 21.0], "includesElement__glawe_number": [73, 97, 55], "includesElement__group_id": [2, 16, 6], "includesElement__heat_of_formation": [147.1, 249.229, 397.48], "includesElement__is_radioactive": [false], "includesElement__lattice_constant": [3.21, 6.83, 2.88], "includesElement__mendeleev_number": [76, 99, 51], "includesElement__molar_heat_capacity": [24.869, 29.378, 23.35], "includesElement__period": [3, 2, 4], "includesElement__pettifor_number": [73, 101, 57], "includesElement__specific_heat_capacity": [1.023, 0.918, 0.449], "includesElement__vdw_radius": [173.0, 152.0, 206.0], "includesElement__vdw_radius_alvarez": [251.0, 150.0, 245.0], "includesElement__vdw_radius_mm3": [243.0, 182.0, 225.0], "includesElement__vdw_radius_uff": [302.1, 350.0, 302.3], "includesElement__abundance_sea": [1290.0, 857000.0, 0.0003], "includesElement__c6_gb": [629.0, 16.7, 709.0], "includesElement__covalent_radius_bragg": [142.0, 65.0, 140.0], "includesElement__electronegativity_allen": [7.646, 21.36, 9.77], "includesElement__en_allen": [7.646, 21.36, 9.77], "includesElement__metallic_radius": [136.0, 119.0], "includesElement__metallic_radius_c12": [160.0, 128.0], "includesElement__thermal_conductivity": [156.0, 0.027, 93.9], "includesElement__vdw_radius_batsanov": [220.0, 155.0, 205.0], "includesElement__c6": [626.0, 15.6, 602.0], "includesElement__gas_basicity": [797.3, 459.6, 768.4], "includesElement__proton_affinity": [819.6, 485.2, 791.3], "includesElement__vdw_radius_bondi": [173.0, 152.0], "includesElement__electron_affinity": [1.461113, 0.666], "includesElement__vdw_radius_dreiding": [340.46], "includesElement__vdw_radius_rt": [158.0], "includesElement__atomic_weight_uncertainty": [0.0006], "formula": ["Cr4Mg2O8"], "spacegroup": ["227"], "thermalConductivity": [6.63248, 6.52937], "icsd": ["160953", "160954"], "band_gap": [2.5264], "density": [4.371846], "density_atomic": [10.43407], "deprecated": [false], "efermi": [3.199629], "energy_above_hull": [0.0], "energy_per_atom": [-8.44726], "formation_energy_per_atom": [-2.626457], "is_gap_direct": [true], "is_magnetic": [true], "is_metal": [false], "is_stable": [true], "nelements": [3], "nsites": [14], "num_magnetic_sites": [4], "num_unique_magnetic_sites": [1], "theoretical": [false], "total_magnetization": [12.0], "total_magnetization_normalized_formula_units": [5.999999], "total_magnetization_normalized_vol": [0.08214846], "uncorrected_energy_per_atom": [-10.94426], "volume": [146.077], "cbm": [5.8409], "e_electronic": [4.435438], "e_ionic": [4.71201], "e_total": [9.147447], "equilibrium_reaction_energy_per_atom": [-0.07040771], "n": [2.106048], "vbm": [3.3145]}