{"includesElement": ["", "O", "Mn", "Y"], "includesElement___series_id": [1, 8], "includesElement__abundance_crust": [461000.0, 950.0, 33.0], "includesElement__atomic_number": [8, 25, 39], "includesElement__atomic_radius": [60.0, 140.0, 180.0], "includesElement__atomic_radius_rahm": [171.0, 242.0, 274.0], "includesElement__atomic_volume": [14.0, 7.39, 19.8], "includesElement__atomic_weight": [15.999, 54.93804, 88.90584], "includesElement__covalent_radius_cordero": [66.0, 150.0, 190.0], "includesElement__covalent_radius_pyykko": [63.0, 119.0, 163.0], "includesElement__covalent_radius_pyykko_double": [57.0, 105.0, 130.0], "includesElement__covalent_radius_pyykko_triple": [53.0, 103.0, 124.0], "includesElement__density": [0.001308, 7.3, 4.47], "includesElement__dipole_polarizability": [5.3, 68.0, 162.0], "includesElement__dipole_polarizability_unc": [0.2, 9.0, 12.0], "includesElement__discovery_year": [1774, 1789], "includesElement__electron_affinity": [1.461113, 0.307], "includesElement__electronegativity_allred-rochow": [0.001146384, 0.0002542193, 0.0001129135], "includesElement__electronegativity_cottrell-sutton": [0.2687419, 0.1739313, 0.1356647], "includesElement__electronegativity_ghosh": [0.304575, 0.1352844, 0.1216986], "includesElement__electronegativity_gordy": [0.07222222, 0.0302521, 0.01840491], "includesElement__electronegativity_mulliken": [7.539584, 3.717009, 3.26213], "includesElement__electronegativity_nagle": [1.042218, 0.4686656, 0.2645668], "includesElement__electronegativity_pauling": [3.44, 1.55, 1.22], "includesElement__electronegativity_sanderson": [0.9416494, 0.6707264, 0.3923941], "includesElement__en_ghosh": [0.304575, 0.1352844, 0.1216986], "includesElement__en_pauling": [3.44, 1.55, 1.22], "includesElement__glawe_number": [97, 72, 21], "includesElement__group_id": [16, 7, 3], "includesElement__heat_of_formation": [249.229, 283.3, 424.7], "includesElement__is_radioactive": [false], "includesElement__lattice_constant": [6.83, 8.89, 3.65], "includesElement__mendeleev_number": [99, 55, 12], "includesElement__molar_heat_capacity": [29.378, 26.32, 26.53], "includesElement__period": [2, 4, 5], "includesElement__pettifor_number": [101, 60, 19], "includesElement__specific_heat_capacity": [0.918, 0.479, 0.298], "includesElement__vdw_radius": [152.0, 205.0, 232.0], "includesElement__vdw_radius_alvarez": [150.0, 245.0, 275.0], "includesElement__vdw_radius_mm3": [182.0, 224.0, 271.0], "includesElement__vdw_radius_uff": [350.0, 296.1, 334.5], "includesElement__abundance_sea": [857000.0, 0.0002, 1.3e-05], "includesElement__c6_gb": [16.7, 635.0, 2600.0], "includesElement__covalent_radius_bragg": [65.0, 147.0], "includesElement__electronegativity_allen": [21.36, 10.34, 6.631], "includesElement__en_allen": [21.36, 10.34, 6.631], "includesElement__thermal_conductivity": [0.027], "includesElement__vdw_radius_batsanov": [155.0, 205.0, 240.0], "includesElement__c6": [15.6, 552.0], "includesElement__vdw_radius_dreiding": [340.46], "includesElement__gas_basicity": [459.6, 774.4, 945.9], "includesElement__proton_affinity": [485.2, 797.3, 967.0], "includesElement__vdw_radius_bondi": [152.0], "includesElement__vdw_radius_rt": [158.0], "includesElement__evaporation_heat": [221.0, 367.0], "includesElement__fusion_heat": [13.4, 11.5], "includesElement__atomic_weight_uncertainty": [3e-06, 2e-05], "includesElement__metallic_radius": [118.0, 162.0], "includesElement__metallic_radius_c12": [127.0, 180.0], "includesElement__is_monoisotopic": [true], "formula": ["Mn2O6Y2"], "spacegroup": ["194"], "thermalConductivity": [5.55972], "icsd": ["181182"], "band_gap": [0.0367], "density": [5.094894], "density_atomic": [12.50512], "deprecated": [false], "efermi": [3.638274], "energy_above_hull": [0.01952005], "energy_per_atom": [-9.110961], "formation_energy_per_atom": [-3.005382], "is_gap_direct": [true], "is_magnetic": [true], "is_metal": [false], "is_stable": [false], "nelements": [3], "nsites": [10], "num_magnetic_sites": [2], "num_unique_magnetic_sites": [2], "theoretical": [false], "total_magnetization": [8.0], "total_magnetization_normalized_formula_units": [4.0], "total_magnetization_normalized_vol": [0.06397379], "uncorrected_energy_per_atom": [-13.63819], "volume": [125.0512], "cbm": [3.6555], "vbm": [3.6188]}