{"includesElement": ["", "Ni", "O", "Mn"], "includesElement___series_id": [8, 1], "includesElement__abundance_crust": [84.0, 461000.0, 950.0], "includesElement__atomic_number": [28, 8, 25], "includesElement__atomic_radius": [135.0, 60.0, 140.0], "includesElement__atomic_radius_rahm": [229.0, 171.0, 242.0], "includesElement__atomic_volume": [6.6, 14.0, 7.39], "includesElement__atomic_weight": [58.6934, 15.999, 54.93804], "includesElement__covalent_radius_cordero": [124.0, 66.0, 150.0], "includesElement__covalent_radius_pyykko": [110.0, 63.0, 119.0], "includesElement__covalent_radius_pyykko_double": [101.0, 57.0, 105.0], "includesElement__covalent_radius_pyykko_triple": [101.0, 53.0, 103.0], "includesElement__density": [8.9, 0.001308, 7.3], "includesElement__dipole_polarizability": [49.0, 5.3, 68.0], "includesElement__dipole_polarizability_unc": [3.0, 0.2, 9.0], "includesElement__discovery_year": [1751, 1774], "includesElement__electron_affinity": [1.156, 1.461113], "includesElement__electronegativity_allred-rochow": [0.0003347107, 0.001146384, 0.0002542193], "includesElement__electronegativity_cottrell-sutton": [0.1918806, 0.2687419, 0.1739313], "includesElement__electronegativity_ghosh": [0.1472068, 0.304575, 0.1352844], "includesElement__electronegativity_gordy": [0.03681818, 0.07222222, 0.0302521], "includesElement__electronegativity_mulliken": [4.397939, 7.539584, 3.717009], "includesElement__electronegativity_nagle": [0.588755, 1.042218, 0.4686656], "includesElement__electronegativity_pauling": [1.91, 3.44, 1.55], "includesElement__electronegativity_sanderson": [0.937704, 0.9416494, 0.6707264], "includesElement__en_ghosh": [0.1472068, 0.304575, 0.1352844], "includesElement__en_pauling": [1.91, 3.44, 1.55], "includesElement__evaporation_heat": [378.6, 221.0], "includesElement__fusion_heat": [17.61, 13.4], "includesElement__glawe_number": [69, 97, 72], "includesElement__group_id": [10, 16, 7], "includesElement__heat_of_formation": [430.1, 249.229, 283.3], "includesElement__is_radioactive": [false], "includesElement__lattice_constant": [3.52, 6.83, 8.89], "includesElement__mendeleev_number": [67, 99, 55], "includesElement__molar_heat_capacity": [26.07, 29.378, 26.32], "includesElement__period": [4, 2], "includesElement__pettifor_number": [67, 101, 60], "includesElement__specific_heat_capacity": [0.444, 0.918, 0.479], "includesElement__vdw_radius": [197.0, 152.0, 205.0], "includesElement__vdw_radius_alvarez": [240.0, 150.0, 245.0], "includesElement__vdw_radius_mm3": [222.0, 182.0, 224.0], "includesElement__vdw_radius_uff": [283.4, 350.0, 296.1], "includesElement__abundance_sea": [0.00056, 857000.0, 0.0002], "includesElement__atomic_weight_uncertainty": [0.0004, 3e-06], "includesElement__c6_gb": [393.0, 16.7, 635.0], "includesElement__covalent_radius_bragg": [135.0, 65.0, 147.0], "includesElement__electronegativity_allen": [11.13, 21.36, 10.34], "includesElement__en_allen": [11.13, 21.36, 10.34], "includesElement__metallic_radius": [115.0, 118.0], "includesElement__metallic_radius_c12": [124.0, 127.0], "includesElement__thermal_conductivity": [90.9, 0.027], "includesElement__vdw_radius_batsanov": [200.0, 155.0, 205.0], "includesElement__c6": [373.0, 15.6, 552.0], "includesElement__gas_basicity": [714.1, 459.6, 774.4], "includesElement__proton_affinity": [737.0, 485.2, 797.3], "includesElement__vdw_radius_dreiding": [340.46], "includesElement__vdw_radius_bondi": [152.0], "includesElement__vdw_radius_rt": [158.0], "includesElement__is_monoisotopic": [true], "formula": ["Mn1Ni6O8"], "spacegroup": ["225"], "thermalConductivity": [6.02782], "icsd": ["40584"], "band_gap": [1.4245], "density": [6.142113], "density_atomic": [9.64428], "deprecated": [false], "efermi": [4.804165], "energy_above_hull": [0.0], "energy_per_atom": [-6.9232], "formation_energy_per_atom": [-1.359137], "is_gap_direct": [false], "is_magnetic": [true], "is_metal": [false], "is_stable": [true], "nelements": [3], "nsites": [15], "num_magnetic_sites": [9], "num_unique_magnetic_sites": [4], "theoretical": [false], "total_magnetization": [14.99998], "total_magnetization_normalized_formula_units": [14.99998], "total_magnetization_normalized_vol": [0.1036883], "uncorrected_energy_per_atom": [-10.26523], "volume": [144.6642], "cbm": [6.0965], "equilibrium_reaction_energy_per_atom": [-0.009617831], "vbm": [4.672]}