{"includesElement": ["", "Ge", "Mn", "Co"], "includesElement___series_id": [5, 8], "includesElement__abundance_crust": [1.5, 950.0, 25.0], "includesElement__atomic_number": [32, 25, 27], "includesElement__atomic_radius": [125.0, 140.0, 135.0], "includesElement__atomic_radius_rahm": [234.0, 242.0, 233.0], "includesElement__atomic_volume": [13.6, 7.39, 6.7], "includesElement__atomic_weight": [72.63, 54.93804, 58.93319], "includesElement__covalent_radius_cordero": [120.0, 150.0, 138.0], "includesElement__covalent_radius_pyykko": [121.0, 119.0, 111.0], "includesElement__covalent_radius_pyykko_double": [111.0, 105.0, 103.0], "includesElement__covalent_radius_pyykko_triple": [114.0, 103.0, 96.0], "includesElement__density": [5.3234, 7.3, 8.86], "includesElement__dipole_polarizability": [40.0, 68.0, 55.0], "includesElement__dipole_polarizability_unc": [1.0, 9.0, 4.0], "includesElement__discovery_year": [1886, 1774, 1739], "includesElement__electron_affinity": [1.232712, 0.6622565], "includesElement__electronegativity_allred-rochow": [0.0003859026, 0.0002542193, 0.0003165327], "includesElement__electronegativity_cottrell-sutton": [0.2160884, 0.1739313, 0.1874437], "includesElement__electronegativity_ghosh": [0.1895892, 0.1352844, 0.1432363], "includesElement__electronegativity_gordy": [0.04669421, 0.0302521, 0.03513514], "includesElement__electronegativity_mulliken": [4.566073, 3.717009, 4.271633], "includesElement__electronegativity_nagle": [0.4641589, 0.4686656, 0.5469655], "includesElement__electronegativity_pauling": [2.01, 1.55, 1.88], "includesElement__electronegativity_sanderson": [0.8001471, 0.6707264, 0.8832424], "includesElement__en_ghosh": [0.1895892, 0.1352844, 0.1432363], "includesElement__en_pauling": [2.01, 1.55, 1.88], "includesElement__evaporation_heat": [328.0, 221.0, 389.1], "includesElement__fusion_heat": [36.8, 13.4, 15.48], "includesElement__glawe_number": [84, 72, 70], "includesElement__group_id": [14, 7, 9], "includesElement__heat_of_formation": [372.0, 283.3, 426.7], "includesElement__is_radioactive": [false], "includesElement__lattice_constant": [5.66, 8.89, 2.51], "includesElement__mendeleev_number": [89, 55, 63], "includesElement__molar_heat_capacity": [23.222, 26.32, 24.81], "includesElement__period": [4], "includesElement__pettifor_number": [84, 60, 64], "includesElement__specific_heat_capacity": [0.32, 0.479, 0.421], "includesElement__vdw_radius": [211.0, 205.0, 200.0], "includesElement__vdw_radius_alvarez": [229.0, 245.0, 240.0], "includesElement__vdw_radius_mm3": [244.0, 224.0, 223.0], "includesElement__vdw_radius_uff": [428.0, 296.1, 287.2], "includesElement__abundance_sea": [5e-05, 0.0002, 2e-05], "includesElement__atomic_weight_uncertainty": [0.008, 3e-06, 4e-06], "includesElement__c6_gb": [365.0, 635.0, 461.0], "includesElement__electronegativity_allen": [11.8, 10.34, 10.86], "includesElement__en_allen": [11.8, 10.34, 10.86], "includesElement__metallic_radius": [124.0, 118.0, 116.0], "includesElement__metallic_radius_c12": [144.0, 127.0, 125.0], "includesElement__thermal_conductivity": [60.2, 100.0], "includesElement__vdw_radius_batsanov": [210.0, 205.0, 200.0], "includesElement__c6": [354.0, 552.0, 408.0], "includesElement__vdw_radius_dreiding": [427.0], "includesElement__vdw_radius_truhlar": [211.0], "includesElement__covalent_radius_bragg": [147.0, 137.0], "includesElement__is_monoisotopic": [true], "includesElement__gas_basicity": [774.4, 719.8], "includesElement__proton_affinity": [797.3, 742.7], "formula": ["Co2Ge1Mn1"], "spacegroup": ["225"], "thermalConductivity": [14.6521], "icsd": ["185088"], "band_gap": [0.0], "density": [8.868738], "density_atomic": [11.48895], "deprecated": [false], "efermi": [6.953872], "energy_above_hull": [0.0], "energy_per_atom": [-7.262608], "formation_energy_per_atom": [-0.2496386], "homogeneous_poisson": [0.295], "is_gap_direct": [false], "is_magnetic": [true], "is_metal": [true], "is_stable": [true], "nelements": [3], "nsites": [4], "num_magnetic_sites": [3], "num_unique_magnetic_sites": [2], "theoretical": [false], "total_magnetization": [5.022103], "total_magnetization_normalized_formula_units": [5.022103], "total_magnetization_normalized_vol": [0.1092811], "uncorrected_energy_per_atom": [-14.08167], "universal_anisotropy": [0.733], "volume": [45.95581], "equilibrium_reaction_energy_per_atom": [-0.1405452]}