{"includesElement": ["", "P", "Nb", "Cr"], "includesElement___series_id": [1, 8], "includesElement__abundance_crust": [1050.0, 20.0, 102.0], "includesElement__atomic_number": [15, 41, 24], "includesElement__atomic_radius": [100.0, 145.0, 140.0], "includesElement__atomic_radius_rahm": [223.0, 251.0, 233.0], "includesElement__atomic_volume": [17.0, 10.8, 7.23], "includesElement__atomic_weight": [30.97376, 92.90637, 51.9961], "includesElement__covalent_radius_cordero": [107.0, 164.0, 139.0], "includesElement__covalent_radius_pyykko": [111.0, 147.0, 122.0], "includesElement__covalent_radius_pyykko_double": [102.0, 125.0, 111.0], "includesElement__covalent_radius_pyykko_triple": [94.0, 116.0, 103.0], "includesElement__density": [1.823, 8.57, 7.15], "includesElement__dipole_polarizability": [25.0, 98.0, 83.0], "includesElement__dipole_polarizability_unc": [1.0, 8.0, 12.0], "includesElement__discovery_year": [1669, 1801, 1797], "includesElement__electron_affinity": [0.746607, 0.917406, 0.666], "includesElement__electronegativity_allred-rochow": [0.0003895788, 0.0001295756, 0.0001981994], "includesElement__electronegativity_cottrell-sutton": [0.2079501, 0.1380131, 0.1555003], "includesElement__electronegativity_ghosh": [0.206931, 0.1280782, 0.1313053], "includesElement__electronegativity_gordy": [0.04324324, 0.01904762, 0.02418033], "includesElement__electronegativity_mulliken": [5.616646, 3.838128, 3.716255], "includesElement__electronegativity_nagle": [0.5848035, 0.3708924, 0.4165729], "includesElement__electronegativity_pauling": [2.19, 1.6, 1.66], "includesElement__electronegativity_sanderson": [0.4510269, 0.5561695, 0.6017723], "includesElement__en_ghosh": [0.206931, 0.1280782, 0.1313053], "includesElement__en_pauling": [2.19, 1.6, 1.66], "includesElement__evaporation_heat": [49.8, 680.0, 342.0], "includesElement__fusion_heat": [2.51, 26.8, 21.0], "includesElement__glawe_number": [89, 53, 55], "includesElement__group_id": [15, 5, 6], "includesElement__heat_of_formation": [316.5, 733.0, 397.48], "includesElement__is_radioactive": [false], "includesElement__lattice_constant": [7.17, 3.3, 2.88], "includesElement__mendeleev_number": [94, 48, 51], "includesElement__molar_heat_capacity": [23.824, 24.6, 23.35], "includesElement__period": [3, 5, 4], "includesElement__pettifor_number": [90, 52, 57], "includesElement__specific_heat_capacity": [0.769, 0.265, 0.449], "includesElement__vdw_radius": [180.0, 218.0, 206.0], "includesElement__vdw_radius_alvarez": [190.0, 256.0, 245.0], "includesElement__vdw_radius_mm3": [222.0, 243.0, 225.0], "includesElement__vdw_radius_uff": [414.7, 316.5, 302.3], "includesElement__abundance_sea": [0.06, 1e-05, 0.0003], "includesElement__atomic_weight_uncertainty": [5e-09, 2e-05, 0.0006], "includesElement__c6_gb": [187.0, 1140.0, 709.0], "includesElement__electronegativity_allen": [13.33, 8.34, 9.77], "includesElement__en_allen": [13.33, 8.34, 9.77], "includesElement__metallic_radius": [110.0, 134.0, 119.0], "includesElement__metallic_radius_c12": [128.0, 146.0], "includesElement__vdw_radius_batsanov": [195.0, 215.0, 205.0], "includesElement__c6": [185.0, 602.0], "includesElement__is_monoisotopic": [true], "includesElement__vdw_radius_dreiding": [415.0], "includesElement__gas_basicity": [604.8, 768.4], "includesElement__proton_affinity": [626.8, 791.3], "includesElement__vdw_radius_bondi": [180.0], "includesElement__thermal_conductivity": [53.7, 93.9], "includesElement__covalent_radius_bragg": [140.0], "formula": ["Cr4Nb4P4"], "spacegroup": ["62"], "thermalConductivity": [9.54724], "icsd": ["53189"], "band_gap": [0.0], "density": [7.078905], "density_atomic": [13.7521], "deprecated": [false], "efermi": [8.161126], "energy_above_hull": [0.0], "energy_per_atom": [-9.103952], "formation_energy_per_atom": [-0.7140096], "homogeneous_poisson": [0.272], "is_gap_direct": [false], "is_magnetic": [true], "is_metal": [true], "is_stable": [true], "nelements": [3], "nsites": [12], "num_magnetic_sites": [4], "num_unique_magnetic_sites": [1], "theoretical": [false], "total_magnetization": [7.627909], "total_magnetization_normalized_formula_units": [1.906977], "total_magnetization_normalized_vol": [0.0462227], "uncorrected_energy_per_atom": [-16.99131], "universal_anisotropy": [0.293], "volume": [165.0252], "equilibrium_reaction_energy_per_atom": [-0.05490071]}