{"includesElement": ["", "P", "Mn", "Nb"], "includesElement___series_id": [1, 8], "includesElement__abundance_crust": [1050.0, 950.0, 20.0], "includesElement__atomic_number": [15, 25, 41], "includesElement__atomic_radius": [100.0, 140.0, 145.0], "includesElement__atomic_radius_rahm": [223.0, 242.0, 251.0], "includesElement__atomic_volume": [17.0, 7.39, 10.8], "includesElement__atomic_weight": [30.97376, 54.93804, 92.90637], "includesElement__covalent_radius_cordero": [107.0, 150.0, 164.0], "includesElement__covalent_radius_pyykko": [111.0, 119.0, 147.0], "includesElement__covalent_radius_pyykko_double": [102.0, 105.0, 125.0], "includesElement__covalent_radius_pyykko_triple": [94.0, 103.0, 116.0], "includesElement__density": [1.823, 7.3, 8.57], "includesElement__dipole_polarizability": [25.0, 68.0, 98.0], "includesElement__dipole_polarizability_unc": [1.0, 9.0, 8.0], "includesElement__discovery_year": [1669, 1774, 1801], "includesElement__electron_affinity": [0.746607, 0.917406], "includesElement__electronegativity_allred-rochow": [0.0003895788, 0.0002542193, 0.0001295756], "includesElement__electronegativity_cottrell-sutton": [0.2079501, 0.1739313, 0.1380131], "includesElement__electronegativity_ghosh": [0.206931, 0.1352844, 0.1280782], "includesElement__electronegativity_gordy": [0.04324324, 0.0302521, 0.01904762], "includesElement__electronegativity_mulliken": [5.616646, 3.717009, 3.838128], "includesElement__electronegativity_nagle": [0.5848035, 0.4686656, 0.3708924], "includesElement__electronegativity_pauling": [2.19, 1.55, 1.6], "includesElement__electronegativity_sanderson": [0.4510269, 0.6707264, 0.5561695], "includesElement__en_ghosh": [0.206931, 0.1352844, 0.1280782], "includesElement__en_pauling": [2.19, 1.55, 1.6], "includesElement__evaporation_heat": [49.8, 221.0, 680.0], "includesElement__fusion_heat": [2.51, 13.4, 26.8], "includesElement__glawe_number": [89, 72, 53], "includesElement__group_id": [15, 7, 5], "includesElement__heat_of_formation": [316.5, 283.3, 733.0], "includesElement__is_radioactive": [false], "includesElement__lattice_constant": [7.17, 8.89, 3.3], "includesElement__mendeleev_number": [94, 55, 48], "includesElement__molar_heat_capacity": [23.824, 26.32, 24.6], "includesElement__period": [3, 4, 5], "includesElement__pettifor_number": [90, 60, 52], "includesElement__specific_heat_capacity": [0.769, 0.479, 0.265], "includesElement__vdw_radius": [180.0, 205.0, 218.0], "includesElement__vdw_radius_alvarez": [190.0, 245.0, 256.0], "includesElement__vdw_radius_mm3": [222.0, 224.0, 243.0], "includesElement__vdw_radius_uff": [414.7, 296.1, 316.5], "includesElement__abundance_sea": [0.06, 0.0002, 1e-05], "includesElement__atomic_weight_uncertainty": [5e-09, 3e-06, 2e-05], "includesElement__c6_gb": [187.0, 635.0, 1140.0], "includesElement__electronegativity_allen": [13.33, 10.34, 8.34], "includesElement__en_allen": [13.33, 10.34, 8.34], "includesElement__metallic_radius": [110.0, 118.0, 134.0], "includesElement__metallic_radius_c12": [128.0, 127.0, 146.0], "includesElement__vdw_radius_batsanov": [195.0, 205.0, 215.0], "includesElement__c6": [185.0, 552.0], "includesElement__is_monoisotopic": [true], "includesElement__vdw_radius_dreiding": [415.0], "includesElement__gas_basicity": [604.8, 774.4], "includesElement__proton_affinity": [626.8, 797.3], "includesElement__vdw_radius_bondi": [180.0], "includesElement__covalent_radius_bragg": [147.0], "includesElement__thermal_conductivity": [53.7], "formula": ["Mn4Nb4P4"], "spacegroup": ["62"], "thermalConductivity": [10.0886], "icsd": ["68280"], "band_gap": [0.0], "density": [7.206983], "density_atomic": [13.73365], "deprecated": [false], "efermi": [8.116418], "energy_above_hull": [0.0], "energy_per_atom": [-9.03837], "formation_energy_per_atom": [-0.8121053], "homogeneous_poisson": [0.067], "is_gap_direct": [false], "is_magnetic": [true], "is_metal": [true], "is_stable": [true], "nelements": [3], "nsites": [12], "num_magnetic_sites": [4], "num_unique_magnetic_sites": [2], "theoretical": [false], "total_magnetization": [10.17188], "total_magnetization_normalized_formula_units": [2.54297], "total_magnetization_normalized_vol": [0.06172115], "uncorrected_energy_per_atom": [-16.97632], "universal_anisotropy": [-4.131], "volume": [164.8038], "equilibrium_reaction_energy_per_atom": [-0.1422019]}