{"includesElement": ["", "P", "Zr", "Fe"], "includesElement___series_id": [1, 8], "includesElement__abundance_crust": [1050.0, 165.0, 56300.0], "includesElement__atomic_number": [15, 40, 26], "includesElement__atomic_radius": [100.0, 155.0, 140.0], "includesElement__atomic_radius_rahm": [223.0, 269.0, 237.0], "includesElement__atomic_volume": [17.0, 14.1, 7.1], "includesElement__atomic_weight": [30.97376, 91.224, 55.845], "includesElement__covalent_radius_cordero": [107.0, 175.0, 142.0], "includesElement__covalent_radius_pyykko": [111.0, 154.0, 116.0], "includesElement__covalent_radius_pyykko_double": [102.0, 127.0, 109.0], "includesElement__covalent_radius_pyykko_triple": [94.0, 121.0, 102.0], "includesElement__density": [1.823, 6.52, 7.87], "includesElement__dipole_polarizability": [25.0, 112.0, 62.0], "includesElement__dipole_polarizability_unc": [1.0, 13.0, 4.0], "includesElement__discovery_year": [1669, 1789], "includesElement__electron_affinity": [0.746607, 0.426, 0.151], "includesElement__electronegativity_allred-rochow": [0.0003895788, 0.0001328217, 0.0002786861], "includesElement__electronegativity_cottrell-sutton": [0.2079501, 0.1430194, 0.1797987], "includesElement__electronegativity_ghosh": [0.206931, 0.1248887, 0.1392532], "includesElement__electronegativity_gordy": [0.04324324, 0.02045455, 0.03232759], "includesElement__electronegativity_mulliken": [5.616646, 3.52995, 4.026734], "includesElement__electronegativity_nagle": [0.5848035, 0.3293169, 0.5053195], "includesElement__electronegativity_pauling": [2.19, 1.33, 1.83], "includesElement__electronegativity_sanderson": [0.4510269, 0.4744467, 0.748727], "includesElement__en_ghosh": [0.206931, 0.1248887, 0.1392532], "includesElement__en_pauling": [2.19, 1.33, 1.83], "includesElement__evaporation_heat": [49.8, 567.0, 340.0], "includesElement__fusion_heat": [2.51, 19.2, 13.8], "includesElement__glawe_number": [89, 49, 71], "includesElement__group_id": [15, 4, 8], "includesElement__heat_of_formation": [316.5, 610.0, 415.5], "includesElement__is_radioactive": [false], "includesElement__lattice_constant": [7.17, 3.23, 2.87], "includesElement__mendeleev_number": [94, 44, 59], "includesElement__molar_heat_capacity": [23.824, 25.36, 25.1], "includesElement__period": [3, 5, 4], "includesElement__pettifor_number": [90, 49, 61], "includesElement__specific_heat_capacity": [0.769, 0.278, 0.449], "includesElement__vdw_radius": [180.0, 223.0, 204.0], "includesElement__vdw_radius_alvarez": [190.0, 252.0, 244.0], "includesElement__vdw_radius_mm3": [222.0, 254.0, 223.0], "includesElement__vdw_radius_uff": [414.7, 312.4, 291.2], "includesElement__abundance_sea": [0.06, 3e-05, 0.002], "includesElement__atomic_weight_uncertainty": [5e-09, 0.002], "includesElement__c6_gb": [187.0, 1360.0, 548.0], "includesElement__electronegativity_allen": [13.33, 7.808, 10.64], "includesElement__en_allen": [13.33, 7.808, 10.64], "includesElement__metallic_radius": [110.0, 145.0, 117.0], "includesElement__metallic_radius_c12": [128.0, 160.0, 126.0], "includesElement__vdw_radius_batsanov": [195.0, 230.0, 205.0], "includesElement__c6": [185.0, 482.0], "includesElement__is_monoisotopic": [true], "includesElement__vdw_radius_dreiding": [415.0], "includesElement__gas_basicity": [604.8, 731.1], "includesElement__proton_affinity": [626.8, 754.0], "includesElement__vdw_radius_bondi": [180.0], "includesElement__thermal_conductivity": [22.7, 80.4], "includesElement__covalent_radius_bragg": [140.0], "formula": ["Fe4P4Zr4"], "spacegroup": ["62"], "thermalConductivity": [6.81398], "icsd": ["43204"], "band_gap": [0.0], "density": [7.146888], "density_atomic": [13.78908], "deprecated": [false], "efermi": [7.401115], "energy_above_hull": [0.0], "energy_per_atom": [-8.529253], "formation_energy_per_atom": [-1.051521], "homogeneous_poisson": [0.246], "is_gap_direct": [false], "is_magnetic": [false], "is_metal": [true], "is_stable": [true], "nelements": [3], "nsites": [12], "num_magnetic_sites": [0], "num_unique_magnetic_sites": [0], "theoretical": [false], "total_magnetization": [0.0076223], "total_magnetization_normalized_formula_units": [0.001905575], "total_magnetization_normalized_vol": [4.606484e-05], "uncorrected_energy_per_atom": [-16.33921], "universal_anisotropy": [0.133], "volume": [165.4689], "equilibrium_reaction_energy_per_atom": [-0.1296461]}