{"includesElement": ["", "Ge", "La", "Pt"], "includesElement___series_id": [5, 9, 8], "includesElement__abundance_crust": [1.5, 39.0, 0.005], "includesElement__atomic_number": [32, 57, 78], "includesElement__atomic_radius": [125.0, 195.0, 135.0], "includesElement__atomic_radius_rahm": [234.0, 284.0, 230.0], "includesElement__atomic_volume": [13.6, 22.5, 9.1], "includesElement__atomic_weight": [72.63, 138.9055, 195.084], "includesElement__covalent_radius_cordero": [120.0, 207.0, 136.0], "includesElement__covalent_radius_pyykko": [121.0, 180.0, 123.0], "includesElement__covalent_radius_pyykko_double": [111.0, 139.0, 112.0], "includesElement__covalent_radius_pyykko_triple": [114.0, 139.0, 110.0], "includesElement__density": [5.3234, 6.15, 21.5], "includesElement__dipole_polarizability": [40.0, 215.0, 48.0], "includesElement__dipole_polarizability_unc": [1.0, 20.0, 4.0], "includesElement__discovery_year": [1886, 1839, 1735], "includesElement__electron_affinity": [1.232712, 0.47, 2.128], "includesElement__electronegativity_allred-rochow": [0.0003859026, 9.259259e-05, 0.0002346487], "includesElement__electronegativity_cottrell-sutton": [0.2160884, 0.1290994, 0.1698876], "includesElement__electronegativity_ghosh": [0.1895892, 0.163142, 0.25691], "includesElement__electronegativity_gordy": [0.04669421, 0.01666667, 0.02886179], "includesElement__electronegativity_mulliken": [4.566073, 3.02345, 5.543415], "includesElement__electronegativity_nagle": [0.4641589, 0.240747, 0.5928156], "includesElement__electronegativity_pauling": [2.01, 1.1, 2.2], "includesElement__electronegativity_sanderson": [0.8001471, 0.3946505, 1.45101], "includesElement__en_ghosh": [0.1895892, 0.163142, 0.25691], "includesElement__en_pauling": [2.01, 1.1, 2.2], "includesElement__evaporation_heat": [328.0, 402.0, 470.0], "includesElement__fusion_heat": [36.8, 8.5, 21.76], "includesElement__glawe_number": [84, 32, 64], "includesElement__group_id": [14, 3, 10], "includesElement__heat_of_formation": [372.0, 431.0, 565.7], "includesElement__is_radioactive": [false], "includesElement__lattice_constant": [5.66, 3.75, 3.92], "includesElement__mendeleev_number": [89, 13, 69], "includesElement__molar_heat_capacity": [23.222, 27.11, 25.86], "includesElement__period": [4, 6], "includesElement__pettifor_number": [84, 33, 68], "includesElement__specific_heat_capacity": [0.32, 0.195, 0.133], "includesElement__vdw_radius": [211.0, 243.0, 213.0], "includesElement__vdw_radius_alvarez": [229.0, 298.0], "includesElement__vdw_radius_mm3": [244.0, 278.0, 239.0], "includesElement__vdw_radius_uff": [428.0, 352.2, 275.4], "includesElement__abundance_sea": [5e-05, 3.4e-06], "includesElement__atomic_weight_uncertainty": [0.008, 7e-05, 0.009], "includesElement__c6_gb": [365.0, 3730.0, 470.0], "includesElement__electronegativity_allen": [11.8, 10.16], "includesElement__en_allen": [11.8, 10.16], "includesElement__metallic_radius": [124.0, 169.0, 130.0], "includesElement__metallic_radius_c12": [144.0, 187.0, 139.0], "includesElement__thermal_conductivity": [60.2, 13.4, 71.6], "includesElement__vdw_radius_batsanov": [210.0, 250.0, 205.0], "includesElement__c6": [354.0], "includesElement__vdw_radius_dreiding": [427.0], "includesElement__vdw_radius_truhlar": [211.0], "includesElement__gas_basicity": [991.9], "includesElement__proton_affinity": [1013.0], "formula": ["Ge2La1Pt2"], "spacegroup": ["139"], "thermalConductivity": [2.57277], "icsd": ["53665"], "band_gap": [0.0], "density": [11.13788], "density_atomic": [20.10779], "deprecated": [false], "efermi": [7.680376], "energy_above_hull": [0.09734055], "energy_per_atom": [-33.0594], "formation_energy_per_atom": [-0.9665639], "is_gap_direct": [false], "is_magnetic": [false], "is_metal": [true], "is_stable": [false], "nelements": [3], "nsites": [5], "num_magnetic_sites": [0], "num_unique_magnetic_sites": [0], "theoretical": [false], "total_magnetization": [0.003651], "total_magnetization_normalized_formula_units": [0.003651], "total_magnetization_normalized_vol": [3.631429e-05], "uncorrected_energy_per_atom": [-6.135509], "volume": [100.5389]}