{"includesElement": ["", "P", "Nb", "Co"], "includesElement___series_id": [1, 8], "includesElement__abundance_crust": [1050.0, 20.0, 25.0], "includesElement__atomic_number": [15, 41, 27], "includesElement__atomic_radius": [100.0, 145.0, 135.0], "includesElement__atomic_radius_rahm": [223.0, 251.0, 233.0], "includesElement__atomic_volume": [17.0, 10.8, 6.7], "includesElement__atomic_weight": [30.97376, 92.90637, 58.93319], "includesElement__covalent_radius_cordero": [107.0, 164.0, 138.0], "includesElement__covalent_radius_pyykko": [111.0, 147.0], "includesElement__covalent_radius_pyykko_double": [102.0, 125.0, 103.0], "includesElement__covalent_radius_pyykko_triple": [94.0, 116.0, 96.0], "includesElement__density": [1.823, 8.57, 8.86], "includesElement__dipole_polarizability": [25.0, 98.0, 55.0], "includesElement__dipole_polarizability_unc": [1.0, 8.0, 4.0], "includesElement__discovery_year": [1669, 1801, 1739], "includesElement__electron_affinity": [0.746607, 0.917406, 0.6622565], "includesElement__electronegativity_allred-rochow": [0.0003895788, 0.0001295756, 0.0003165327], "includesElement__electronegativity_cottrell-sutton": [0.2079501, 0.1380131, 0.1874437], "includesElement__electronegativity_ghosh": [0.206931, 0.1280782, 0.1432363], "includesElement__electronegativity_gordy": [0.04324324, 0.01904762, 0.03513514], "includesElement__electronegativity_mulliken": [5.616646, 3.838128, 4.271633], "includesElement__electronegativity_nagle": [0.5848035, 0.3708924, 0.5469655], "includesElement__electronegativity_pauling": [2.19, 1.6, 1.88], "includesElement__electronegativity_sanderson": [0.4510269, 0.5561695, 0.8832424], "includesElement__en_ghosh": [0.206931, 0.1280782, 0.1432363], "includesElement__en_pauling": [2.19, 1.6, 1.88], "includesElement__evaporation_heat": [49.8, 680.0, 389.1], "includesElement__fusion_heat": [2.51, 26.8, 15.48], "includesElement__glawe_number": [89, 53, 70], "includesElement__group_id": [15, 5, 9], "includesElement__heat_of_formation": [316.5, 733.0, 426.7], "includesElement__is_radioactive": [false], "includesElement__lattice_constant": [7.17, 3.3, 2.51], "includesElement__mendeleev_number": [94, 48, 63], "includesElement__molar_heat_capacity": [23.824, 24.6, 24.81], "includesElement__period": [3, 5, 4], "includesElement__pettifor_number": [90, 52, 64], "includesElement__specific_heat_capacity": [0.769, 0.265, 0.421], "includesElement__vdw_radius": [180.0, 218.0, 200.0], "includesElement__vdw_radius_alvarez": [190.0, 256.0, 240.0], "includesElement__vdw_radius_mm3": [222.0, 243.0, 223.0], "includesElement__vdw_radius_uff": [414.7, 316.5, 287.2], "includesElement__abundance_sea": [0.06, 1e-05, 2e-05], "includesElement__atomic_weight_uncertainty": [5e-09, 2e-05, 4e-06], "includesElement__c6_gb": [187.0, 1140.0, 461.0], "includesElement__electronegativity_allen": [13.33, 8.34, 10.86], "includesElement__en_allen": [13.33, 8.34, 10.86], "includesElement__metallic_radius": [110.0, 134.0, 116.0], "includesElement__metallic_radius_c12": [128.0, 146.0, 125.0], "includesElement__vdw_radius_batsanov": [195.0, 215.0, 200.0], "includesElement__c6": [185.0, 408.0], "includesElement__is_monoisotopic": [true], "includesElement__vdw_radius_dreiding": [415.0], "includesElement__gas_basicity": [604.8, 719.8], "includesElement__proton_affinity": [626.8, 742.7], "includesElement__vdw_radius_bondi": [180.0], "includesElement__thermal_conductivity": [53.7, 100.0], "includesElement__covalent_radius_bragg": [137.0], "formula": ["Co4Nb4P4"], "spacegroup": ["62"], "thermalConductivity": [3.86745], "icsd": ["49727"], "band_gap": [0.0], "density": [7.970583], "density_atomic": [12.69538], "deprecated": [false], "efermi": [8.474808], "energy_above_hull": [0.0], "energy_per_atom": [-8.423796], "formation_energy_per_atom": [-0.8737311], "homogeneous_poisson": [0.283], "is_gap_direct": [false], "is_magnetic": [false], "is_metal": [true], "is_stable": [true], "nelements": [3], "nsites": [12], "num_magnetic_sites": [0], "num_unique_magnetic_sites": [0], "theoretical": [false], "total_magnetization": [0.000958], "total_magnetization_normalized_formula_units": [0.0002395], "total_magnetization_normalized_vol": [6.288378e-06], "uncorrected_energy_per_atom": [-16.49347], "universal_anisotropy": [0.125], "volume": [152.3445], "equilibrium_reaction_energy_per_atom": [-0.1633076]}