{"includesElement": ["", "O", "Sr", "Tb"], "includesElement___series_id": [1, 4, 9], "includesElement__abundance_crust": [461000.0, 370.0, 1.2], "includesElement__atomic_number": [8, 38, 65], "includesElement__atomic_radius": [60.0, 200.0, 175.0], "includesElement__atomic_radius_rahm": [171.0, 279.0, 276.0], "includesElement__atomic_volume": [14.0, 33.7, 19.2], "includesElement__atomic_weight": [15.999, 87.62, 158.9254], "includesElement__covalent_radius_cordero": [66.0, 195.0, 194.0], "includesElement__covalent_radius_pyykko": [63.0, 185.0, 168.0], "includesElement__covalent_radius_pyykko_double": [57.0, 157.0, 135.0], "includesElement__covalent_radius_pyykko_triple": [53.0, 139.0], "includesElement__density": [0.001308, 2.64, 8.23], "includesElement__dipole_polarizability": [5.3, 197.2, 170.0], "includesElement__dipole_polarizability_unc": [0.2, 20.0], "includesElement__discovery_year": [1774, 1790, 1843], "includesElement__electron_affinity": [1.461113, 0.048, 1.165], "includesElement__electronegativity_allred-rochow": [0.001146384, 8.327246e-05, 0.0001009779], "includesElement__electronegativity_cottrell-sutton": [0.2687419, 0.1241185, 0.130247], "includesElement__electronegativity_ghosh": [0.304575, 0.1185082, 0.198863], "includesElement__electronegativity_gordy": [0.07222222, 0.01540541, 0.01696429], "includesElement__electronegativity_mulliken": [7.539584, 2.871434, 3.5144], "includesElement__electronegativity_nagle": [1.042218, 0.2164584, 0.4014652], "includesElement__electronegativity_pauling": [3.44, 0.95], "includesElement__electronegativity_sanderson": [0.9416494, 0.2631786, 0.5163695], "includesElement__en_ghosh": [0.304575, 0.1185082, 0.198863], "includesElement__en_pauling": [3.44, 0.95], "includesElement__glawe_number": [97, 15, 25], "includesElement__group_id": [16, 2], "includesElement__heat_of_formation": [249.229, 164.0, 388.7], "includesElement__is_radioactive": [false], "includesElement__lattice_constant": [6.83, 6.08, 3.6], "includesElement__mendeleev_number": [99, 8, 29], "includesElement__molar_heat_capacity": [29.378, 26.79, 28.91], "includesElement__period": [2, 5, 6], "includesElement__pettifor_number": [101, 15, 26], "includesElement__specific_heat_capacity": [0.918, 0.306, 0.182], "includesElement__vdw_radius": [152.0, 249.0, 233.0], "includesElement__vdw_radius_alvarez": [150.0, 284.0, 279.0], "includesElement__vdw_radius_mm3": [182.0, 300.0, 270.0], "includesElement__vdw_radius_uff": [350.0, 364.1, 345.1], "includesElement__abundance_sea": [857000.0, 7.9, 1.4e-07], "includesElement__c6_gb": [16.7, 3230.0, 2590.0], "includesElement__covalent_radius_bragg": [65.0, 195.0], "includesElement__electronegativity_allen": [21.36, 5.695], "includesElement__en_allen": [21.36, 5.695], "includesElement__thermal_conductivity": [0.027, 11.1], "includesElement__vdw_radius_batsanov": [155.0, 255.0], "includesElement__c6": [15.6, 3175.0], "includesElement__vdw_radius_dreiding": [340.46], "includesElement__gas_basicity": [459.6], "includesElement__proton_affinity": [485.2], "includesElement__vdw_radius_bondi": [152.0], "includesElement__vdw_radius_rt": [158.0], "includesElement__evaporation_heat": [144.0, 389.0], "includesElement__fusion_heat": [9.2], "includesElement__atomic_weight_uncertainty": [0.01, 2e-05], "includesElement__metallic_radius": [191.0], "includesElement__metallic_radius_c12": [215.0], "includesElement__vdw_radius_truhlar": [249.0], "includesElement__is_monoisotopic": [true], "formula": ["O12Sr4Tb4"], "spacegroup": ["62"], "thermalConductivity": [1.6612], "icsd": ["86734"], "band_gap": [0.0], "density": [6.042046], "density_atomic": [16.18992], "deprecated": [false], "efermi": [0.9181856], "energy_above_hull": [0.1219436], "energy_per_atom": [-15.91393], "formation_energy_per_atom": [-3.063125], "is_gap_direct": [false], "is_magnetic": [true], "is_metal": [true], "is_stable": [false], "nelements": [3], "nsites": [20], "num_magnetic_sites": [12], "num_unique_magnetic_sites": [2], "theoretical": [false], "total_magnetization": [3.998569], "total_magnetization_normalized_formula_units": [0.9996423], "total_magnetization_normalized_vol": [0.01234895], "uncorrected_energy_per_atom": [-6.96825], "volume": [323.7983]}