{"includesElement": ["", "Y", "Rh", "C"], "includesElement___series_id": [8, 1], "includesElement__abundance_crust": [33.0, 0.001, 200.0], "includesElement__atomic_number": [39, 45, 6], "includesElement__atomic_radius": [180.0, 135.0, 70.0], "includesElement__atomic_radius_rahm": [274.0, 233.0, 190.0], "includesElement__atomic_volume": [19.8, 8.3, 5.3], "includesElement__atomic_weight": [88.90584, 102.9055, 12.011], "includesElement__covalent_radius_cordero": [190.0, 142.0, 73.0], "includesElement__covalent_radius_pyykko": [163.0, 125.0, 75.0], "includesElement__covalent_radius_pyykko_double": [130.0, 110.0, 67.0], "includesElement__covalent_radius_pyykko_triple": [124.0, 106.0, 60.0], "includesElement__density": [4.47, 12.4, 2.2], "includesElement__dipole_polarizability": [162.0, 66.0, 11.3], "includesElement__dipole_polarizability_unc": [12.0, 10.0, 0.2], "includesElement__discovery_year": [1789, 1803], "includesElement__electron_affinity": [0.307, 1.137, 1.262119], "includesElement__electronegativity_allred-rochow": [0.0001129135, 0.0002176, 0.0005777778], "includesElement__electronegativity_cottrell-sutton": [0.1356647, 0.1649242, 0.2081666], "includesElement__electronegativity_ghosh": [0.1216986, 0.1408379, 0.224776], "includesElement__electronegativity_gordy": [0.01840491, 0.0272, 0.04333333], "includesElement__electronegativity_mulliken": [3.26213, 4.29795, 6.261208], "includesElement__electronegativity_nagle": [0.2645668, 0.5147142, 0.7073926], "includesElement__electronegativity_pauling": [1.22, 2.28, 2.55], "includesElement__electronegativity_sanderson": [0.3923941, 0.9761915, 0.427525], "includesElement__en_ghosh": [0.1216986, 0.1408379, 0.224776], "includesElement__en_pauling": [1.22, 2.28, 2.55], "includesElement__evaporation_heat": [367.0, 494.0], "includesElement__fusion_heat": [11.5, 21.8], "includesElement__glawe_number": [21, 63, 87], "includesElement__group_id": [3, 9, 14], "includesElement__heat_of_formation": [424.7, 556.0, 716.87], "includesElement__is_radioactive": [false], "includesElement__lattice_constant": [3.65, 3.8, 3.57], "includesElement__mendeleev_number": [12, 64, 87], "includesElement__molar_heat_capacity": [26.53, 24.98, 8.517], "includesElement__period": [5, 2], "includesElement__pettifor_number": [19, 66, 95], "includesElement__specific_heat_capacity": [0.298, 0.243, 0.709], "includesElement__vdw_radius": [232.0, 210.0, 170.0], "includesElement__vdw_radius_alvarez": [275.0, 244.0, 177.0], "includesElement__vdw_radius_mm3": [271.0, 234.0, 204.0], "includesElement__vdw_radius_uff": [334.5, 292.9, 385.1], "includesElement__abundance_sea": [1.3e-05, 28.0], "includesElement__atomic_weight_uncertainty": [2e-05], "includesElement__c6_gb": [2600.0, 708.0, 47.9], "includesElement__electronegativity_allen": [6.631, 9.259, 15.05], "includesElement__en_allen": [6.631, 9.259, 15.05], "includesElement__metallic_radius": [162.0, 125.0], "includesElement__metallic_radius_c12": [180.0, 134.0, 86.0], "includesElement__vdw_radius_batsanov": [240.0, 200.0, 170.0], "includesElement__is_monoisotopic": [true], "includesElement__gas_basicity": [945.9, 745.4], "includesElement__proton_affinity": [967.0, 768.0], "includesElement__thermal_conductivity": [150.0, 1.59], "includesElement__covalent_radius_bragg": [77.0], "includesElement__c6": [46.6], "includesElement__vdw_radius_dreiding": [389.83], "includesElement__vdw_radius_bondi": [170.0], "includesElement__vdw_radius_rt": [177.0], "formula": ["C1Rh3Y1"], "spacegroup": ["221"], "thermalConductivity": [8.19898], "icsd": ["77389"], "band_gap": [0.0], "density": [9.487898], "density_atomic": [14.33851], "deprecated": [false], "efermi": [6.261042], "energy_above_hull": [0.0], "energy_per_atom": [-8.042441], "formation_energy_per_atom": [-0.4763053], "homogeneous_poisson": [0.322], "is_gap_direct": [false], "is_magnetic": [false], "is_metal": [true], "is_stable": [true], "nelements": [3], "nsites": [5], "num_magnetic_sites": [0], "num_unique_magnetic_sites": [0], "theoretical": [false], "total_magnetization": [4e-07], "total_magnetization_normalized_formula_units": [4e-07], "total_magnetization_normalized_vol": [5.57938e-09], "uncorrected_energy_per_atom": [-21.08006], "universal_anisotropy": [0.002], "volume": [71.69256], "equilibrium_reaction_energy_per_atom": [-0.03439105]}