{"includesElement": ["", "S", "Pb", "Hf"], "includesElement___series_id": [1, 7, 8], "includesElement__abundance_crust": [350.0, 14.0, 3.0], "includesElement__atomic_number": [16, 82, 72], "includesElement__atomic_radius": [100.0, 180.0, 155.0], "includesElement__atomic_radius_rahm": [214.0, 249.0, 264.0], "includesElement__atomic_volume": [15.5, 18.3, 13.6], "includesElement__atomic_weight": [32.06, 207.2, 178.49], "includesElement__covalent_radius_cordero": [105.0, 146.0, 175.0], "includesElement__covalent_radius_pyykko": [103.0, 144.0, 152.0], "includesElement__covalent_radius_pyykko_double": [94.0, 135.0, 128.0], "includesElement__covalent_radius_pyykko_triple": [95.0, 137.0, 122.0], "includesElement__density": [2.07, 11.3, 13.3], "includesElement__dipole_polarizability": [19.4, 47.0, 103.0], "includesElement__dipole_polarizability_unc": [0.1, 3.0, 6.0], "includesElement__electron_affinity": [2.077104, 0.3567432, 0.014], "includesElement__electronegativity_allred-rochow": [0.0005137148, 0.000272473, 0.00013634], "includesElement__electronegativity_cottrell-sutton": [0.2300274, 0.1980811, 0.1439572], "includesElement__electronegativity_ghosh": [0.23596, 0.177911, 0.229987], "includesElement__electronegativity_gordy": [0.05291262, 0.03923611, 0.02072368], "includesElement__electronegativity_mulliken": [6.218557, 3.886711, 3.419535], "includesElement__electronegativity_nagle": [0.6762644, 0.4398663, 0.3386421], "includesElement__electronegativity_pauling": [2.58, 1.8, 1.3], "includesElement__electronegativity_sanderson": [0.6397251, 0.9313226, 0.7352125], "includesElement__en_ghosh": [0.23596, 0.177911, 0.229987], "includesElement__en_pauling": [2.58, 1.8, 1.3], "includesElement__evaporation_heat": [10.5, 177.8, 575.0], "includesElement__fusion_heat": [1.23, 4.77, 25.1], "includesElement__glawe_number": [96, 82, 50], "includesElement__group_id": [16, 14, 4], "includesElement__heat_of_formation": [277.17, 195.2, 618.4], "includesElement__is_radioactive": [false], "includesElement__lattice_constant": [10.47, 4.95, 3.2], "includesElement__mendeleev_number": [100, 91, 45], "includesElement__molar_heat_capacity": [22.7, 26.84, 25.73], "includesElement__period": [3, 6], "includesElement__pettifor_number": [94, 82, 50], "includesElement__specific_heat_capacity": [0.708, 0.13, 0.144], "includesElement__vdw_radius": [180.0, 202.0, 223.0], "includesElement__vdw_radius_alvarez": [189.0, 260.0, 263.0], "includesElement__vdw_radius_mm3": [215.0, 274.0, 253.0], "includesElement__vdw_radius_uff": [403.5, 429.7, 314.1], "includesElement__abundance_sea": [905.0, 3e-05, 7e-06], "includesElement__c6_gb": [140.0, 534.0, 1040.0], "includesElement__covalent_radius_bragg": [102.0], "includesElement__electronegativity_allen": [15.31, 10.97, 6.83], "includesElement__en_allen": [15.31, 10.97, 6.83], "includesElement__metallic_radius": [104.0, 150.0, 144.0], "includesElement__metallic_radius_c12": [127.0, 170.0, 159.0], "includesElement__thermal_conductivity": [0.27, 35.3, 23.0], "includesElement__vdw_radius_batsanov": [180.0, 230.0, 225.0], "includesElement__c6": [134.0], "includesElement__vdw_radius_dreiding": [403.0], "includesElement__gas_basicity": [640.2], "includesElement__proton_affinity": [664.3], "includesElement__vdw_radius_bondi": [180.0, 202.0], "includesElement__vdw_radius_rt": [181.0], "includesElement__atomic_weight_uncertainty": [0.1, 0.02], "includesElement__discovery_year": [1923], "formula": ["Hf4Pb4S12"], "spacegroup": ["62"], "thermalConductivity": [3.01534], "icsd": ["65668"], "band_gap": [1.4517], "density": [6.637225], "density_atomic": [24.11215], "deprecated": [false], "efermi": [3.759761], "energy_above_hull": [0.005059236], "energy_per_atom": [-6.672001], "formation_energy_per_atom": [-1.455018], "is_gap_direct": [false], "is_magnetic": [false], "is_metal": [false], "is_stable": [false], "nelements": [3], "nsites": [20], "num_magnetic_sites": [0], "num_unique_magnetic_sites": [0], "theoretical": [false], "total_magnetization": [0.0], "total_magnetization_normalized_formula_units": [0.0], "total_magnetization_normalized_vol": [0.0], "uncorrected_energy_per_atom": [-26.46314], "volume": [482.243], "cbm": [5.1512], "vbm": [3.6995]}