{"includesElement": ["", "Ga", "Zr", "Co"], "includesElement___series_id": [7, 8], "includesElement__abundance_crust": [19.0, 165.0, 25.0], "includesElement__atomic_number": [31, 40, 27], "includesElement__atomic_radius": [130.0, 155.0, 135.0], "includesElement__atomic_radius_rahm": [233.0, 269.0], "includesElement__atomic_volume": [11.8, 14.1, 6.7], "includesElement__atomic_weight": [69.723, 91.224, 58.93319], "includesElement__covalent_radius_cordero": [122.0, 175.0, 138.0], "includesElement__covalent_radius_pyykko": [124.0, 154.0, 111.0], "includesElement__covalent_radius_pyykko_double": [117.0, 127.0, 103.0], "includesElement__covalent_radius_pyykko_triple": [121.0, 96.0], "includesElement__density": [5.91, 6.52, 8.86], "includesElement__dipole_polarizability": [50.0, 112.0, 55.0], "includesElement__dipole_polarizability_unc": [3.0, 13.0, 4.0], "includesElement__discovery_year": [1875, 1789, 1739], "includesElement__electron_affinity": [0.43, 0.426, 0.6622565], "includesElement__electronegativity_allred-rochow": [0.0003251821, 0.0001328217, 0.0003165327], "includesElement__electronegativity_cottrell-sutton": [0.2008048, 0.1430194, 0.1874437], "includesElement__electronegativity_ghosh": [0.1723773, 0.1248887, 0.1432363], "includesElement__electronegativity_gordy": [0.04032258, 0.02045455, 0.03513514], "includesElement__electronegativity_mulliken": [3.214651, 3.52995, 4.271633], "includesElement__electronegativity_nagle": [0.3914868, 0.3293169, 0.5469655], "includesElement__electronegativity_pauling": [1.81, 1.33, 1.88], "includesElement__electronegativity_sanderson": [0.720541, 0.4744467, 0.8832424], "includesElement__en_ghosh": [0.1723773, 0.1248887, 0.1432363], "includesElement__en_pauling": [1.81, 1.33, 1.88], "includesElement__evaporation_heat": [270.3, 567.0, 389.1], "includesElement__fusion_heat": [5.59, 19.2, 15.48], "includesElement__glawe_number": [79, 49, 70], "includesElement__group_id": [13, 4, 9], "includesElement__heat_of_formation": [271.96, 610.0, 426.7], "includesElement__is_radioactive": [false], "includesElement__lattice_constant": [4.51, 3.23, 2.51], "includesElement__mendeleev_number": [83, 44, 63], "includesElement__molar_heat_capacity": [26.03, 25.36, 24.81], "includesElement__period": [4, 5], "includesElement__pettifor_number": [81, 49, 64], "includesElement__specific_heat_capacity": [0.373, 0.278, 0.421], "includesElement__vdw_radius": [187.0, 223.0, 200.0], "includesElement__vdw_radius_alvarez": [232.0, 252.0, 240.0], "includesElement__vdw_radius_mm3": [246.0, 254.0, 223.0], "includesElement__vdw_radius_uff": [438.3, 312.4, 287.2], "includesElement__abundance_sea": [3e-05, 2e-05], "includesElement__atomic_weight_uncertainty": [0.001, 0.002, 4e-06], "includesElement__c6_gb": [456.0, 1360.0, 461.0], "includesElement__electronegativity_allen": [10.39, 7.808, 10.86], "includesElement__en_allen": [10.39, 7.808, 10.86], "includesElement__metallic_radius": [125.0, 145.0, 116.0], "includesElement__metallic_radius_c12": [140.0, 160.0, 125.0], "includesElement__thermal_conductivity": [28.1, 22.7, 100.0], "includesElement__vdw_radius_batsanov": [210.0, 230.0, 200.0], "includesElement__c6": [498.0, 408.0], "includesElement__vdw_radius_dreiding": [439.0], "includesElement__vdw_radius_bondi": [187.0], "includesElement__covalent_radius_bragg": [137.0], "includesElement__is_monoisotopic": [true], "includesElement__gas_basicity": [719.8], "includesElement__proton_affinity": [742.7], "formula": ["Co1Ga2Zr6"], "spacegroup": ["189"], "thermalConductivity": [6.2982], "icsd": ["20876"], "band_gap": [0.0], "density": [6.955538], "density_atomic": [19.78124], "deprecated": [false], "efermi": [4.252138], "energy_above_hull": [0.0], "energy_per_atom": [-7.571217], "formation_energy_per_atom": [-0.407238], "homogeneous_poisson": [0.294], "is_gap_direct": [false], "is_magnetic": [false], "is_metal": [true], "is_stable": [true], "nelements": [3], "nsites": [9], "num_magnetic_sites": [0], "num_unique_magnetic_sites": [0], "theoretical": [false], "total_magnetization": [0.0476756], "total_magnetization_normalized_formula_units": [0.0476756], "total_magnetization_normalized_vol": [0.0002677936], "uncorrected_energy_per_atom": [-19.60381], "universal_anisotropy": [0.109], "volume": [178.0312], "equilibrium_reaction_energy_per_atom": [-0.01254851]}