{"includesElement": ["", "P", "Co", "Mo"], "includesElement___series_id": [1, 8], "includesElement__abundance_crust": [1050.0, 25.0, 1.2], "includesElement__atomic_number": [15, 27, 42], "includesElement__atomic_radius": [100.0, 135.0, 145.0], "includesElement__atomic_radius_rahm": [223.0, 233.0, 244.0], "includesElement__atomic_volume": [17.0, 6.7, 9.4], "includesElement__atomic_weight": [30.97376, 58.93319, 95.95], "includesElement__covalent_radius_cordero": [107.0, 138.0, 154.0], "includesElement__covalent_radius_pyykko": [111.0, 138.0], "includesElement__covalent_radius_pyykko_double": [102.0, 103.0, 121.0], "includesElement__covalent_radius_pyykko_triple": [94.0, 96.0, 113.0], "includesElement__density": [1.823, 8.86, 10.2], "includesElement__dipole_polarizability": [25.0, 55.0, 87.0], "includesElement__dipole_polarizability_unc": [1.0, 4.0, 6.0], "includesElement__discovery_year": [1669, 1739, 1778], "includesElement__electron_affinity": [0.746607, 0.6622565, 0.748], "includesElement__electronegativity_allred-rochow": [0.0003895788, 0.0003165327, 0.0001549044], "includesElement__electronegativity_cottrell-sutton": [0.2079501, 0.1874437, 0.1462081], "includesElement__electronegativity_ghosh": [0.206931, 0.1432363, 0.1312672], "includesElement__electronegativity_gordy": [0.04324324, 0.03513514, 0.02137681], "includesElement__electronegativity_mulliken": [5.616646, 4.271633, 3.920215], "includesElement__electronegativity_nagle": [0.5848035, 0.5469655, 0.4100883], "includesElement__electronegativity_pauling": [2.19, 1.88, 2.16], "includesElement__electronegativity_sanderson": [0.4510269, 0.8832424, 0.685295], "includesElement__en_ghosh": [0.206931, 0.1432363, 0.1312672], "includesElement__en_pauling": [2.19, 1.88, 2.16], "includesElement__evaporation_heat": [49.8, 389.1, 590.0], "includesElement__fusion_heat": [2.51, 15.48, 28.0], "includesElement__glawe_number": [89, 70, 56], "includesElement__group_id": [15, 9, 6], "includesElement__heat_of_formation": [316.5, 426.7, 658.98], "includesElement__is_radioactive": [false], "includesElement__lattice_constant": [7.17, 2.51, 3.15], "includesElement__mendeleev_number": [94, 63, 52], "includesElement__molar_heat_capacity": [23.824, 24.81, 24.06], "includesElement__period": [3, 4, 5], "includesElement__pettifor_number": [90, 64, 55], "includesElement__specific_heat_capacity": [0.769, 0.421, 0.251], "includesElement__vdw_radius": [180.0, 200.0, 217.0], "includesElement__vdw_radius_alvarez": [190.0, 240.0, 245.0], "includesElement__vdw_radius_mm3": [222.0, 223.0, 239.0], "includesElement__vdw_radius_uff": [414.7, 287.2, 305.2], "includesElement__abundance_sea": [0.06, 2e-05, 0.01], "includesElement__atomic_weight_uncertainty": [5e-09, 4e-06, 0.01], "includesElement__c6_gb": [187.0, 461.0, 1030.0], "includesElement__electronegativity_allen": [13.33, 10.86, 8.71], "includesElement__en_allen": [13.33, 10.86, 8.71], "includesElement__metallic_radius": [110.0, 116.0, 130.0], "includesElement__metallic_radius_c12": [128.0, 125.0, 139.0], "includesElement__vdw_radius_batsanov": [195.0, 200.0, 210.0], "includesElement__c6": [185.0, 408.0], "includesElement__is_monoisotopic": [true], "includesElement__vdw_radius_dreiding": [415.0], "includesElement__gas_basicity": [604.8, 719.8], "includesElement__proton_affinity": [626.8, 742.7], "includesElement__vdw_radius_bondi": [180.0], "includesElement__covalent_radius_bragg": [137.0], "includesElement__thermal_conductivity": [100.0], "formula": ["Co4Mo4P4"], "spacegroup": ["62"], "thermalConductivity": [4.34111], "icsd": ["2421"], "band_gap": [0.0], "density": [8.619276], "density_atomic": [11.93473], "deprecated": [false], "efermi": [9.745675], "energy_above_hull": [0.0], "energy_per_atom": [-16.65574], "formation_energy_per_atom": [-0.5529794], "homogeneous_poisson": [0.284], "is_gap_direct": [false], "is_magnetic": [false], "is_metal": [true], "is_stable": [true], "nelements": [3], "nsites": [12], "num_magnetic_sites": [0], "num_unique_magnetic_sites": [0], "theoretical": [false], "total_magnetization": [4.7e-06], "total_magnetization_normalized_formula_units": [1.175e-06], "total_magnetization_normalized_vol": [3.28174e-08], "uncorrected_energy_per_atom": [-16.65574], "universal_anisotropy": [0.152], "volume": [143.2167], "equilibrium_reaction_energy_per_atom": [-0.08897817]}