{"includesElement": ["", "Cu", "S", "Cr"], "includesElement___series_id": [8, 1], "includesElement__abundance_crust": [60.0, 350.0, 102.0], "includesElement__atomic_number": [29, 16, 24], "includesElement__atomic_radius": [135.0, 100.0, 140.0], "includesElement__atomic_radius_rahm": [217.0, 214.0, 233.0], "includesElement__atomic_volume": [7.1, 15.5, 7.23], "includesElement__atomic_weight": [63.546, 32.06, 51.9961], "includesElement__covalent_radius_cordero": [132.0, 105.0, 139.0], "includesElement__covalent_radius_pyykko": [112.0, 103.0, 122.0], "includesElement__covalent_radius_pyykko_double": [115.0, 94.0, 111.0], "includesElement__covalent_radius_pyykko_triple": [120.0, 95.0, 103.0], "includesElement__density": [8.96, 2.07, 7.15], "includesElement__dipole_polarizability": [46.5, 19.4, 83.0], "includesElement__dipole_polarizability_unc": [0.5, 0.1, 12.0], "includesElement__electron_affinity": [1.235, 2.077104, 0.666], "includesElement__electronegativity_allred-rochow": [0.0002949617, 0.0005137148, 0.0001981994], "includesElement__electronegativity_cottrell-sutton": [0.1817573, 0.2300274, 0.1555003], "includesElement__electronegativity_ghosh": [0.1511716, 0.23596, 0.1313053], "includesElement__electronegativity_gordy": [0.03303571, 0.05291262, 0.02418033], "includesElement__electronegativity_mulliken": [4.48069, 6.218557, 3.716255], "includesElement__electronegativity_nagle": [0.6184623, 0.6762644, 0.4165729], "includesElement__electronegativity_pauling": [1.9, 2.58, 1.66], "includesElement__electronegativity_sanderson": [0.9175542, 0.6397251, 0.6017723], "includesElement__en_ghosh": [0.1511716, 0.23596, 0.1313053], "includesElement__en_pauling": [1.9, 2.58, 1.66], "includesElement__evaporation_heat": [304.6, 10.5, 342.0], "includesElement__fusion_heat": [13.01, 1.23, 21.0], "includesElement__glawe_number": [68, 96, 55], "includesElement__group_id": [11, 16, 6], "includesElement__heat_of_formation": [337.4, 277.17, 397.48], "includesElement__is_radioactive": [false], "includesElement__lattice_constant": [3.61, 10.47, 2.88], "includesElement__mendeleev_number": [71, 100, 51], "includesElement__molar_heat_capacity": [24.44, 22.7, 23.35], "includesElement__period": [4, 3], "includesElement__pettifor_number": [72, 94, 57], "includesElement__specific_heat_capacity": [0.385, 0.708, 0.449], "includesElement__vdw_radius": [196.0, 180.0, 206.0], "includesElement__vdw_radius_alvarez": [238.0, 189.0, 245.0], "includesElement__vdw_radius_mm3": [226.0, 215.0, 225.0], "includesElement__vdw_radius_uff": [349.5, 403.5, 302.3], "includesElement__abundance_sea": [0.00025, 905.0, 0.0003], "includesElement__atomic_weight_uncertainty": [0.003, 0.0006], "includesElement__c6_gb": [264.0, 140.0, 709.0], "includesElement__covalent_radius_bragg": [137.0, 102.0, 140.0], "includesElement__electronegativity_allen": [10.96, 15.31, 9.77], "includesElement__en_allen": [10.96, 15.31, 9.77], "includesElement__metallic_radius": [118.0, 104.0, 119.0], "includesElement__metallic_radius_c12": [128.0, 127.0], "includesElement__thermal_conductivity": [401.0, 0.27, 93.9], "includesElement__vdw_radius_batsanov": [200.0, 180.0, 205.0], "includesElement__c6": [253.0, 134.0, 602.0], "includesElement__gas_basicity": [632.4, 640.2, 768.4], "includesElement__proton_affinity": [655.3, 664.3, 791.3], "includesElement__vdw_radius_dreiding": [403.0], "includesElement__vdw_radius_bondi": [180.0], "includesElement__vdw_radius_rt": [181.0], "includesElement__discovery_year": [1797], "formula": ["Cr4Cu2S8"], "spacegroup": ["227"], "thermalConductivity": [1.90054], "icsd": ["53111"], "band_gap": [0.0], "density": [4.133108], "density_atomic": [16.97735], "deprecated": [false], "efermi": [5.226777], "energy_above_hull": [0.0], "energy_per_atom": [-6.628929], "formation_energy_per_atom": [-0.9205375], "is_gap_direct": [false], "is_magnetic": [true], "is_metal": [true], "is_stable": [true], "nelements": [3], "nsites": [14], "num_magnetic_sites": [6], "num_unique_magnetic_sites": [2], "theoretical": [false], "total_magnetization": [10.20406], "total_magnetization_normalized_formula_units": [5.102031], "total_magnetization_normalized_vol": [0.04293142], "uncorrected_energy_per_atom": [-11.31738], "volume": [237.6829], "equilibrium_reaction_energy_per_atom": [-0.08445655]}