{"includesElement": ["", "O", "Sr", "Nb"], "includesElement___series_id": [1, 4, 8], "includesElement__abundance_crust": [461000.0, 370.0, 20.0], "includesElement__atomic_number": [8, 38, 41], "includesElement__atomic_radius": [60.0, 200.0, 145.0], "includesElement__atomic_radius_rahm": [171.0, 279.0, 251.0], "includesElement__atomic_volume": [14.0, 33.7, 10.8], "includesElement__atomic_weight": [15.999, 87.62, 92.90637], "includesElement__covalent_radius_cordero": [66.0, 195.0, 164.0], "includesElement__covalent_radius_pyykko": [63.0, 185.0, 147.0], "includesElement__covalent_radius_pyykko_double": [57.0, 157.0, 125.0], "includesElement__covalent_radius_pyykko_triple": [53.0, 139.0, 116.0], "includesElement__density": [0.001308, 2.64, 8.57], "includesElement__dipole_polarizability": [5.3, 197.2, 98.0], "includesElement__dipole_polarizability_unc": [0.2, 8.0], "includesElement__discovery_year": [1774, 1790, 1801], "includesElement__electron_affinity": [1.461113, 0.048, 0.917406], "includesElement__electronegativity_allred-rochow": [0.001146384, 8.327246e-05, 0.0001295756], "includesElement__electronegativity_cottrell-sutton": [0.2687419, 0.1241185, 0.1380131], "includesElement__electronegativity_ghosh": [0.304575, 0.1185082, 0.1280782], "includesElement__electronegativity_gordy": [0.07222222, 0.01540541, 0.01904762], "includesElement__electronegativity_mulliken": [7.539584, 2.871434, 3.838128], "includesElement__electronegativity_nagle": [1.042218, 0.2164584, 0.3708924], "includesElement__electronegativity_pauling": [3.44, 0.95, 1.6], "includesElement__electronegativity_sanderson": [0.9416494, 0.2631786, 0.5561695], "includesElement__en_ghosh": [0.304575, 0.1185082, 0.1280782], "includesElement__en_pauling": [3.44, 0.95, 1.6], "includesElement__glawe_number": [97, 15, 53], "includesElement__group_id": [16, 2, 5], "includesElement__heat_of_formation": [249.229, 164.0, 733.0], "includesElement__is_radioactive": [false], "includesElement__lattice_constant": [6.83, 6.08, 3.3], "includesElement__mendeleev_number": [99, 8, 48], "includesElement__molar_heat_capacity": [29.378, 26.79, 24.6], "includesElement__period": [2, 5], "includesElement__pettifor_number": [101, 15, 52], "includesElement__specific_heat_capacity": [0.918, 0.306, 0.265], "includesElement__vdw_radius": [152.0, 249.0, 218.0], "includesElement__vdw_radius_alvarez": [150.0, 284.0, 256.0], "includesElement__vdw_radius_mm3": [182.0, 300.0, 243.0], "includesElement__vdw_radius_uff": [350.0, 364.1, 316.5], "includesElement__abundance_sea": [857000.0, 7.9, 1e-05], "includesElement__c6_gb": [16.7, 3230.0, 1140.0], "includesElement__covalent_radius_bragg": [65.0, 195.0], "includesElement__electronegativity_allen": [21.36, 5.695, 8.34], "includesElement__en_allen": [21.36, 5.695, 8.34], "includesElement__thermal_conductivity": [0.027, 53.7], "includesElement__vdw_radius_batsanov": [155.0, 255.0, 215.0], "includesElement__c6": [15.6, 3175.0], "includesElement__vdw_radius_dreiding": [340.46], "includesElement__gas_basicity": [459.6], "includesElement__proton_affinity": [485.2], "includesElement__vdw_radius_bondi": [152.0], "includesElement__vdw_radius_rt": [158.0], "includesElement__evaporation_heat": [144.0, 680.0], "includesElement__fusion_heat": [9.2, 26.8], "includesElement__atomic_weight_uncertainty": [0.01, 2e-05], "includesElement__metallic_radius": [191.0, 134.0], "includesElement__metallic_radius_c12": [215.0, 146.0], "includesElement__vdw_radius_truhlar": [249.0], "includesElement__is_monoisotopic": [true], "formula": ["Nb5O9Sr2"], "spacegroup": ["123"], "thermalConductivity": [8.16702], "icsd": ["71859"], "band_gap": [0.0], "density": [6.055126], "density_atomic": [13.43361], "deprecated": [false], "efermi": [5.383408], "energy_above_hull": [0.0385119], "energy_per_atom": [-9.01354], "formation_energy_per_atom": [-2.859681], "is_gap_direct": [false], "is_magnetic": [false], "is_metal": [true], "is_stable": [false], "nelements": [3], "nsites": [16], "num_magnetic_sites": [0], "num_unique_magnetic_sites": [0], "theoretical": [false], "total_magnetization": [0.0080909], "total_magnetization_normalized_formula_units": [0.0080909], "total_magnetization_normalized_vol": [3.7643e-05], "uncorrected_energy_per_atom": [-8.627103], "volume": [214.9377]}