{"includesElement": ["", "Na", "O", "Br"], "includesElement___series_id": [3, 1, 6], "includesElement__abundance_crust": [23600.0, 461000.0, 2.4], "includesElement__atomic_number": [11, 8, 35], "includesElement__atomic_radius": [180.0, 60.0, 115.0], "includesElement__atomic_radius_rahm": [225.0, 171.0, 219.0], "includesElement__atomic_volume": [23.7, 14.0, 23.5], "includesElement__atomic_weight": [22.98977, 15.999, 79.904], "includesElement__covalent_radius_cordero": [166.0, 66.0, 120.0], "includesElement__covalent_radius_pyykko": [155.0, 63.0, 114.0], "includesElement__covalent_radius_pyykko_double": [160.0, 57.0, 109.0], "includesElement__density": [0.97, 0.001308, 3.1028], "includesElement__dipole_polarizability": [162.7, 5.3, 21.0], "includesElement__dipole_polarizability_unc": [0.5, 0.2, 1.0], "includesElement__discovery_year": [1807, 1774, 1826], "includesElement__electron_affinity": [0.547926, 1.461113, 3.363588], "includesElement__electronegativity_allred-rochow": [9.157128e-05, 0.001146384, 0.0005847953], "includesElement__electronegativity_cottrell-sutton": [0.1191367, 0.2687419, 0.2581989], "includesElement__electronegativity_ghosh": [0.093214, 0.304575, 0.2412578], "includesElement__electronegativity_gordy": [0.01419355, 0.07222222, 0.06666667], "includesElement__electronegativity_mulliken": [2.843501, 7.539584, 7.588699], "includesElement__electronegativity_nagle": [0.1831769, 1.042218, 0.6933613], "includesElement__electronegativity_pauling": [0.93, 3.44, 2.96], "includesElement__electronegativity_sanderson": [0.09459764, 0.9416494, 1.049026], "includesElement__en_ghosh": [0.093214, 0.304575, 0.2412578], "includesElement__en_pauling": [0.93, 3.44, 2.96], "includesElement__evaporation_heat": [97.9, 29.56], "includesElement__fusion_heat": [2.64, 10.57], "includesElement__glawe_number": [11, 97, 100], "includesElement__group_id": [1, 16, 17], "includesElement__heat_of_formation": [107.5, 249.229, 111.85], "includesElement__is_radioactive": [false], "includesElement__lattice_constant": [4.23, 6.83, 6.67], "includesElement__mendeleev_number": [2, 99, 108], "includesElement__molar_heat_capacity": [28.23, 29.378, 75.69], "includesElement__period": [3, 2, 4], "includesElement__pettifor_number": [11, 101, 98], "includesElement__specific_heat_capacity": [1.228, 0.918, 0.474], "includesElement__vdw_radius": [227.0, 152.0, 185.0], "includesElement__vdw_radius_alvarez": [250.0, 150.0, 186.0], "includesElement__vdw_radius_mm3": [270.0, 182.0, 222.0], "includesElement__vdw_radius_uff": [298.3, 350.0, 418.9], "includesElement__abundance_sea": [10800.0, 857000.0, 67.3], "includesElement__atomic_weight_uncertainty": [2e-08], "includesElement__c6_gb": [1570.0, 16.7, 187.0], "includesElement__covalent_radius_bragg": [177.0, 65.0, 119.0], "includesElement__electronegativity_allen": [5.14, 21.36, 15.88], "includesElement__en_allen": [5.14, 21.36, 15.88], "includesElement__metallic_radius": [157.0], "includesElement__metallic_radius_c12": [190.0, 117.0], "includesElement__thermal_conductivity": [142.0, 0.027, 0.005], "includesElement__vdw_radius_batsanov": [240.0, 155.0, 190.0], "includesElement__c6": [1518.0, 15.6, 162.0], "includesElement__is_monoisotopic": [true], "includesElement__vdw_radius_bondi": [227.0, 152.0, 183.0], "includesElement__covalent_radius_pyykko_triple": [53.0, 110.0], "includesElement__vdw_radius_dreiding": [340.46, 395.0], "includesElement__gas_basicity": [459.6, 531.2], "includesElement__proton_affinity": [485.2, 554.4], "includesElement__vdw_radius_rt": [158.0, 187.0], "formula": ["Br4Na4O12"], "spacegroup": ["198"], "thermalConductivity": [2.41482, 2.4991, 2.39887], "icsd": ["28831", "30208", "47174"], "band_gap": [4.4812], "density": [3.423267], "density_atomic": [14.63877], "deprecated": [false], "efermi": [-0.1729421], "energy_above_hull": [0.09342025], "energy_per_atom": [-7.573058], "formation_energy_per_atom": [-0.6535579], "homogeneous_poisson": [0.25], "is_gap_direct": [false], "is_magnetic": [false], "is_metal": [false], "is_stable": [false], "nelements": [3], "nsites": [20], "num_magnetic_sites": [0], "num_unique_magnetic_sites": [0], "theoretical": [false], "total_magnetization": [0.0], "total_magnetization_normalized_formula_units": [0.0], "total_magnetization_normalized_vol": [0.0], "uncorrected_energy_per_atom": [-7.573058], "universal_anisotropy": [0.034], "volume": [292.7753], "cbm": [4.2163], "e_electronic": [2.733147], "e_ionic": [3.520801], "e_total": [6.253948], "n": [1.653223], "vbm": [-0.2649], "e_ij_max": [0.01517]}