{"includesElement": ["", "Na", "O", "Cl"], "includesElement___series_id": [3, 1, 6], "includesElement__abundance_crust": [23600.0, 461000.0, 145.0], "includesElement__atomic_number": [11, 8, 17], "includesElement__atomic_radius": [180.0, 60.0, 100.0], "includesElement__atomic_radius_rahm": [225.0, 171.0, 206.0], "includesElement__atomic_volume": [23.7, 14.0, 18.7], "includesElement__atomic_weight": [22.98977, 15.999, 35.45], "includesElement__covalent_radius_cordero": [166.0, 66.0, 102.0], "includesElement__covalent_radius_pyykko": [155.0, 63.0, 99.0], "includesElement__covalent_radius_pyykko_double": [160.0, 57.0, 95.0], "includesElement__density": [0.97, 0.001308, 0.002898], "includesElement__dipole_polarizability": [162.7, 5.3, 14.6], "includesElement__dipole_polarizability_unc": [0.5, 0.2, 0.1], "includesElement__discovery_year": [1807, 1774], "includesElement__electron_affinity": [0.547926, 1.461113, 3.612725], "includesElement__electronegativity_allred-rochow": [9.157128e-05, 0.001146384, 0.0006223855], "includesElement__electronegativity_cottrell-sutton": [0.1191367, 0.2687419, 0.248226], "includesElement__electronegativity_ghosh": [0.093214, 0.304575, 0.263803], "includesElement__electronegativity_gordy": [0.01419355, 0.07222222, 0.06161616], "includesElement__electronegativity_mulliken": [2.843501, 7.539584, 8.290178], "includesElement__electronegativity_nagle": [0.1831769, 1.042218, 0.7826755], "includesElement__electronegativity_pauling": [0.93, 3.44, 3.16], "includesElement__electronegativity_sanderson": [0.09459764, 0.9416494, 0.8123773], "includesElement__en_ghosh": [0.093214, 0.304575, 0.263803], "includesElement__en_pauling": [0.93, 3.44, 3.16], "includesElement__evaporation_heat": [97.9, 20.41], "includesElement__fusion_heat": [2.64, 6.41], "includesElement__glawe_number": [11, 97, 101], "includesElement__group_id": [1, 16, 17], "includesElement__heat_of_formation": [107.5, 249.229, 121.302], "includesElement__is_radioactive": [false], "includesElement__lattice_constant": [4.23, 6.83, 6.24], "includesElement__mendeleev_number": [2, 99, 107], "includesElement__molar_heat_capacity": [28.23, 29.378, 33.949], "includesElement__period": [3, 2], "includesElement__pettifor_number": [11, 101, 99], "includesElement__specific_heat_capacity": [1.228, 0.918, 0.479], "includesElement__vdw_radius": [227.0, 152.0, 175.0], "includesElement__vdw_radius_alvarez": [250.0, 150.0, 182.0], "includesElement__vdw_radius_mm3": [270.0, 182.0, 207.0], "includesElement__vdw_radius_uff": [298.3, 350.0, 394.7], "includesElement__abundance_sea": [10800.0, 857000.0, 19400.0], "includesElement__atomic_weight_uncertainty": [2e-08], "includesElement__c6_gb": [1570.0, 16.7, 97.1], "includesElement__covalent_radius_bragg": [177.0, 65.0, 105.0], "includesElement__electronegativity_allen": [5.14, 21.36, 16.97], "includesElement__en_allen": [5.14, 21.36, 16.97], "includesElement__metallic_radius": [157.0], "includesElement__metallic_radius_c12": [190.0, 91.0], "includesElement__thermal_conductivity": [142.0, 0.027, 0.009], "includesElement__vdw_radius_batsanov": [240.0, 155.0, 180.0], "includesElement__c6": [1518.0, 15.6, 94.6], "includesElement__is_monoisotopic": [true], "includesElement__vdw_radius_bondi": [227.0, 152.0, 175.0], "includesElement__covalent_radius_pyykko_triple": [53.0, 93.0], "includesElement__vdw_radius_dreiding": [340.46, 395.03], "includesElement__gas_basicity": [459.6, 490.1], "includesElement__proton_affinity": [485.2, 513.6], "includesElement__vdw_radius_rt": [158.0, 176.0], "formula": ["Cl4Na4O12"], "spacegroup": ["198"], "thermalConductivity": [2.29745, 2.48018], "icsd": ["1117", "80341"], "band_gap": [5.6459, 5.6332], "density": [2.361654, 2.376716], "density_atomic": [14.96827, 14.87341], "deprecated": [false], "efermi": [-0.06597515, 0.02370693], "energy_above_hull": [0.02988564], "energy_per_atom": [-6.305189], "formation_energy_per_atom": [-0.7854748], "homogeneous_poisson": [0.264], "is_gap_direct": [false], "is_magnetic": [false], "is_metal": [false], "is_stable": [false], "nelements": [3], "nsites": [20], "num_magnetic_sites": [0], "num_unique_magnetic_sites": [0], "theoretical": [false], "total_magnetization": [0.0, 0.0003998], "total_magnetization_normalized_formula_units": [0.0, 9.995e-05], "total_magnetization_normalized_vol": [0.0, 1.335492e-06], "uncorrected_energy_per_atom": [-4.278615], "universal_anisotropy": [0.058], "volume": [299.3654, 297.4682], "cbm": [5.5012, 5.6164], "e_electronic": [2.34491], "e_ionic": [3.333212], "e_total": [5.678122], "n": [1.53131], "vbm": [-0.132, -0.0295], "e_ij_max": [0.005823333]}