{"includesElement": ["", "Mg", "K", "H"], "includesElement___series_id": [4, 3, 1], "includesElement__abundance_crust": [23300.0, 20900.0, 1400.0], "includesElement__atomic_number": [12, 19, 1], "includesElement__atomic_radius": [150.0, 220.0, 25.0], "includesElement__atomic_radius_rahm": [240.0, 234.0, 154.0], "includesElement__atomic_volume": [14.0, 45.3, 14.1], "includesElement__atomic_weight": [24.305, 39.0983, 1.008], "includesElement__covalent_radius_cordero": [141.0, 203.0, 31.0], "includesElement__covalent_radius_pyykko": [139.0, 196.0, 32.0], "includesElement__covalent_radius_pyykko_double": [132.0, 193.0], "includesElement__covalent_radius_pyykko_triple": [127.0], "includesElement__density": [1.74, 0.89, 8.2e-05], "includesElement__dipole_polarizability": [71.2, 289.7, 4.50711], "includesElement__dipole_polarizability_unc": [0.4, 0.3, 3e-05], "includesElement__discovery_year": [1808, 1807, 1766], "includesElement__electronegativity_allred-rochow": [0.0001475079, 5.726781e-05, 0.0009765625], "includesElement__electronegativity_cottrell-sutton": [0.1431908, 0.1059457, 0.1767767], "includesElement__electronegativity_ghosh": [0.121644, 0.0981896, 0.2638], "includesElement__electronegativity_gordy": [0.0205036, 0.01122449, 0.03125], "includesElement__electronegativity_mulliken": [3.823117, 2.421067, 7.176315], "includesElement__electronegativity_nagle": [0.3039835, 0.1511299, 0.6053882], "includesElement__electronegativity_pauling": [1.31, 0.82, 2.2], "includesElement__electronegativity_sanderson": [0.1524211, 0.1218383, 2.187771], "includesElement__en_ghosh": [0.121644, 0.0981896, 0.2638], "includesElement__en_pauling": [1.31, 0.82, 2.2], "includesElement__evaporation_heat": [131.8, 2.33, 0.904], "includesElement__fusion_heat": [9.2, 102.5, 0.117], "includesElement__glawe_number": [73, 10, 103], "includesElement__group_id": [2, 1], "includesElement__heat_of_formation": [147.1, 89.0, 217.998], "includesElement__is_radioactive": [false], "includesElement__lattice_constant": [3.21, 5.23, 3.75], "includesElement__mendeleev_number": [76, 3, 105], "includesElement__molar_heat_capacity": [24.869, 29.6, 28.836], "includesElement__period": [3, 4, 1], "includesElement__pettifor_number": [73, 10, 103], "includesElement__specific_heat_capacity": [1.023, 0.757, 14.304], "includesElement__vdw_radius": [173.0, 275.0, 110.0], "includesElement__vdw_radius_alvarez": [251.0, 273.0, 120.0], "includesElement__vdw_radius_mm3": [243.0, 309.0, 162.0], "includesElement__vdw_radius_uff": [302.1, 381.2, 288.6], "includesElement__abundance_sea": [1290.0, 399.0, 108000.0], "includesElement__c6_gb": [629.0, 3910.0, 6.51], "includesElement__covalent_radius_bragg": [142.0, 207.0], "includesElement__electronegativity_allen": [7.646, 4.34, 13.61], "includesElement__en_allen": [7.646, 4.34, 13.61], "includesElement__metallic_radius": [136.0, 203.0], "includesElement__metallic_radius_c12": [160.0, 235.0, 78.0], "includesElement__thermal_conductivity": [156.0, 79.0, 0.1815], "includesElement__vdw_radius_batsanov": [220.0, 280.0], "includesElement__c6": [626.0, 3923.0, 6.499027], "includesElement__gas_basicity": [797.3], "includesElement__proton_affinity": [819.6], "includesElement__vdw_radius_bondi": [173.0, 275.0, 120.0], "includesElement__electron_affinity": [0.50147, 0.754195], "includesElement__atomic_weight_uncertainty": [0.0001], "includesElement__vdw_radius_dreiding": [319.5], "includesElement__vdw_radius_rt": [110.0], "formula": ["H3K1Mg1"], "spacegroup": ["221"], "thermalConductivity": [6.53416], "icsd": ["159175"], "band_gap": [2.458], "density": [1.73899], "density_atomic": [12.68608], "deprecated": [false], "efermi": [0.1156568], "energy_above_hull": [0.0], "energy_per_atom": [-2.935124], "formation_energy_per_atom": [-0.3456561], "homogeneous_poisson": [0.155], "is_gap_direct": [false], "is_magnetic": [false], "is_metal": [false], "is_stable": [true], "nelements": [3], "nsites": [5], "num_magnetic_sites": [0], "num_unique_magnetic_sites": [0], "theoretical": [false], "total_magnetization": [0.0], "total_magnetization_normalized_formula_units": [0.0], "total_magnetization_normalized_vol": [0.0], "uncorrected_energy_per_atom": [-4.46713], "universal_anisotropy": [0.286], "volume": [63.4304], "cbm": [2.4961], "e_electronic": [3.550734], "e_ionic": [5.898661], "e_total": [9.449395], "equilibrium_reaction_energy_per_atom": [-0.02573353], "n": [1.884339], "vbm": [0.0381]}