{"includesElement": ["", "Al", "Cu", "Cl"], "includesElement___series_id": [7, 8, 6], "includesElement__abundance_crust": [82300.0, 60.0, 145.0], "includesElement__atomic_number": [13, 29, 17], "includesElement__atomic_radius": [125.0, 135.0, 100.0], "includesElement__atomic_radius_rahm": [239.0, 217.0, 206.0], "includesElement__atomic_volume": [10.0, 7.1, 18.7], "includesElement__atomic_weight": [26.98154, 63.546, 35.45], "includesElement__covalent_radius_cordero": [121.0, 132.0, 102.0], "includesElement__covalent_radius_pyykko": [126.0, 112.0, 99.0], "includesElement__covalent_radius_pyykko_double": [113.0, 115.0, 95.0], "includesElement__covalent_radius_pyykko_triple": [111.0, 120.0, 93.0], "includesElement__density": [2.7, 8.96, 0.002898], "includesElement__dipole_polarizability": [57.8, 46.5, 14.6], "includesElement__dipole_polarizability_unc": [1.0, 0.5, 0.1], "includesElement__discovery_year": [1825, 1774], "includesElement__electron_affinity": [0.43283, 1.235, 3.612725], "includesElement__electronegativity_allred-rochow": [0.0002204586, 0.0002949617, 0.0006223855], "includesElement__electronegativity_cottrell-sutton": [0.1666667, 0.1817573, 0.248226], "includesElement__electronegativity_ghosh": [0.150078, 0.1511716, 0.263803], "includesElement__electronegativity_gordy": [0.02777778, 0.03303571, 0.06161616], "includesElement__electronegativity_mulliken": [3.209299, 4.48069, 8.290178], "includesElement__electronegativity_nagle": [0.3730192, 0.6184623, 0.7826755], "includesElement__electronegativity_pauling": [1.61, 1.9, 3.16], "includesElement__electronegativity_sanderson": [0.2360927, 0.9175542, 0.8123773], "includesElement__en_ghosh": [0.150078, 0.1511716, 0.263803], "includesElement__en_pauling": [1.61, 1.9, 3.16], "includesElement__evaporation_heat": [284.1, 304.6, 20.41], "includesElement__fusion_heat": [10.75, 13.01, 6.41], "includesElement__glawe_number": [78, 68, 101], "includesElement__group_id": [13, 11, 17], "includesElement__heat_of_formation": [330.9, 337.4, 121.302], "includesElement__is_radioactive": [false], "includesElement__lattice_constant": [4.05, 3.61, 6.24], "includesElement__mendeleev_number": [82, 71, 107], "includesElement__molar_heat_capacity": [24.2, 24.44, 33.949], "includesElement__period": [3, 4], "includesElement__pettifor_number": [80, 72, 99], "includesElement__specific_heat_capacity": [0.897, 0.385, 0.479], "includesElement__vdw_radius": [184.0, 196.0, 175.0], "includesElement__vdw_radius_alvarez": [225.0, 238.0, 182.0], "includesElement__vdw_radius_mm3": [236.0, 226.0, 207.0], "includesElement__vdw_radius_uff": [449.9, 349.5, 394.7], "includesElement__abundance_sea": [0.002, 0.00025, 19400.0], "includesElement__atomic_weight_uncertainty": [7e-07, 0.003], "includesElement__c6_gb": [520.0, 264.0, 97.1], "includesElement__covalent_radius_bragg": [135.0, 137.0, 105.0], "includesElement__electronegativity_allen": [9.539, 10.96, 16.97], "includesElement__en_allen": [9.539, 10.96, 16.97], "includesElement__metallic_radius": [125.0, 118.0], "includesElement__metallic_radius_c12": [143.0, 128.0, 91.0], "includesElement__thermal_conductivity": [237.0, 401.0, 0.009], "includesElement__vdw_radius_batsanov": [210.0, 200.0, 180.0], "includesElement__c6": [528.0, 253.0, 94.6], "includesElement__is_monoisotopic": [true], "includesElement__vdw_radius_dreiding": [439.0, 395.03], "includesElement__vdw_radius_truhlar": [184.0], "includesElement__gas_basicity": [632.4, 490.1], "includesElement__proton_affinity": [655.3, 513.6], "includesElement__vdw_radius_bondi": [175.0], "includesElement__vdw_radius_rt": [176.0], "formula": ["Al2Cl8Cu2"], "spacegroup": ["112"], "thermalConductivity": [1.72822], "icsd": ["35050"], "band_gap": [2.5112], "density": [2.618109], "density_atomic": [24.56027], "deprecated": [false], "efermi": [1.615297], "energy_above_hull": [0.0], "energy_per_atom": [-8.350628], "formation_energy_per_atom": [-1.319186], "homogeneous_poisson": [0.26], "is_gap_direct": [false], "is_magnetic": [false], "is_metal": [false], "is_stable": [true], "nelements": [3], "nsites": [12], "num_magnetic_sites": [0], "num_unique_magnetic_sites": [0], "theoretical": [false], "total_magnetization": [0.0], "total_magnetization_normalized_formula_units": [0.0], "total_magnetization_normalized_vol": [0.0], "uncorrected_energy_per_atom": [-8.350628], "universal_anisotropy": [1.149], "volume": [294.7233], "cbm": [4.0536], "e_electronic": [2.959384], "e_ionic": [1.915434], "e_total": [4.874817], "equilibrium_reaction_energy_per_atom": [-0.02314238], "n": [1.720286], "vbm": [1.5424], "e_ij_max": [0.05847]}