{"includesElement": ["", "Al", "Si", "Fe"], "includesElement___series_id": [7, 5, 8], "includesElement__abundance_crust": [82300.0, 282000.0, 56300.0], "includesElement__atomic_number": [13, 14, 26], "includesElement__atomic_radius": [125.0, 110.0, 140.0], "includesElement__atomic_radius_rahm": [239.0, 232.0, 237.0], "includesElement__atomic_volume": [10.0, 12.1, 7.1], "includesElement__atomic_weight": [26.98154, 28.085, 55.845], "includesElement__covalent_radius_cordero": [121.0, 111.0, 142.0], "includesElement__covalent_radius_pyykko": [126.0, 116.0], "includesElement__covalent_radius_pyykko_double": [113.0, 107.0, 109.0], "includesElement__covalent_radius_pyykko_triple": [111.0, 102.0], "includesElement__density": [2.7, 2.3296, 7.87], "includesElement__dipole_polarizability": [57.8, 37.3, 62.0], "includesElement__dipole_polarizability_unc": [1.0, 0.7, 4.0], "includesElement__discovery_year": [1825, 1824], "includesElement__electron_affinity": [0.43283, 1.389521, 0.151], "includesElement__electronegativity_allred-rochow": [0.0002204586, 0.0003084126, 0.0002786861], "includesElement__electronegativity_cottrell-sutton": [0.1666667, 0.1891451, 0.1797987], "includesElement__electronegativity_ghosh": [0.150078, 0.178503, 0.1392532], "includesElement__electronegativity_gordy": [0.02777778, 0.03577586, 0.03232759], "includesElement__electronegativity_mulliken": [3.209299, 4.770602, 4.026734], "includesElement__electronegativity_nagle": [0.3730192, 0.4750986, 0.5053195], "includesElement__electronegativity_pauling": [1.61, 1.9, 1.83], "includesElement__electronegativity_sanderson": [0.2360927, 0.3468158, 0.748727], "includesElement__en_ghosh": [0.150078, 0.178503, 0.1392532], "includesElement__en_pauling": [1.61, 1.9, 1.83], "includesElement__evaporation_heat": [284.1, 383.0, 340.0], "includesElement__fusion_heat": [10.75, 50.6, 13.8], "includesElement__glawe_number": [78, 85, 71], "includesElement__group_id": [13, 14, 8], "includesElement__heat_of_formation": [330.9, 450.0, 415.5], "includesElement__is_radioactive": [false], "includesElement__lattice_constant": [4.05, 5.43, 2.87], "includesElement__mendeleev_number": [82, 88, 59], "includesElement__molar_heat_capacity": [24.2, 19.99, 25.1], "includesElement__period": [3, 4], "includesElement__pettifor_number": [80, 85, 61], "includesElement__specific_heat_capacity": [0.897, 0.712, 0.449], "includesElement__vdw_radius": [184.0, 210.0, 204.0], "includesElement__vdw_radius_alvarez": [225.0, 219.0, 244.0], "includesElement__vdw_radius_mm3": [236.0, 229.0, 223.0], "includesElement__vdw_radius_uff": [449.9, 429.5, 291.2], "includesElement__abundance_sea": [0.002, 2.2], "includesElement__atomic_weight_uncertainty": [7e-07, 0.002], "includesElement__c6_gb": [520.0, 308.0, 548.0], "includesElement__covalent_radius_bragg": [135.0, 117.0, 140.0], "includesElement__electronegativity_allen": [9.539, 11.33, 10.64], "includesElement__en_allen": [9.539, 11.33, 10.64], "includesElement__metallic_radius": [125.0, 117.0], "includesElement__metallic_radius_c12": [143.0, 138.0, 126.0], "includesElement__thermal_conductivity": [237.0, 149.0, 80.4], "includesElement__vdw_radius_batsanov": [210.0, 205.0], "includesElement__c6": [528.0, 305.0, 482.0], "includesElement__is_monoisotopic": [true], "includesElement__vdw_radius_dreiding": [439.0, 427.0], "includesElement__vdw_radius_truhlar": [184.0], "includesElement__gas_basicity": [814.1, 731.1], "includesElement__proton_affinity": [837.0, 754.0], "includesElement__vdw_radius_bondi": [210.0], "formula": ["Al4Fe6Si8"], "spacegroup": ["63"], "thermalConductivity": [8.27137], "icsd": ["83665"], "band_gap": [0.0], "density": [4.93423], "density_atomic": [12.48319], "deprecated": [false], "efermi": [9.447417], "energy_above_hull": [0.01008138], "energy_per_atom": [-6.465335], "formation_energy_per_atom": [-0.3983918], "homogeneous_poisson": [0.247], "is_gap_direct": [false], "is_magnetic": [false], "is_metal": [true], "is_stable": [false], "nelements": [3], "nsites": [18], "num_magnetic_sites": [0], "num_unique_magnetic_sites": [0], "theoretical": [false], "total_magnetization": [0.0005629], "total_magnetization_normalized_formula_units": [0.00028145], "total_magnetization_normalized_vol": [2.505146e-06], "uncorrected_energy_per_atom": [-6.49689], "universal_anisotropy": [0.138], "volume": [224.6975]}