{"includesElement": ["", "Zn", "Al", "O"], "includesElement___series_id": [8, 7, 1], "includesElement__abundance_crust": [70.0, 82300.0, 461000.0], "includesElement__atomic_number": [30, 13, 8], "includesElement__atomic_radius": [135.0, 125.0, 60.0], "includesElement__atomic_radius_rahm": [222.0, 239.0, 171.0], "includesElement__atomic_volume": [9.2, 10.0, 14.0], "includesElement__atomic_weight": [65.38, 26.98154, 15.999], "includesElement__covalent_radius_cordero": [122.0, 121.0, 66.0], "includesElement__covalent_radius_pyykko": [118.0, 126.0, 63.0], "includesElement__covalent_radius_pyykko_double": [120.0, 113.0, 57.0], "includesElement__density": [7.134, 2.7, 0.001308], "includesElement__dipole_polarizability": [38.67, 57.8, 5.3], "includesElement__dipole_polarizability_unc": [0.3, 1.0, 0.2], "includesElement__electronegativity_allred-rochow": [0.0003124102, 0.0002204586, 0.001146384], "includesElement__electronegativity_cottrell-sutton": [0.1920011, 0.1666667, 0.2687419], "includesElement__electronegativity_ghosh": [0.1551518, 0.150078, 0.304575], "includesElement__electronegativity_gordy": [0.03686441, 0.02777778, 0.07222222], "includesElement__electronegativity_mulliken": [4.6971, 3.209299, 7.539584], "includesElement__electronegativity_nagle": [0.6770213, 0.3730192, 1.042218], "includesElement__electronegativity_pauling": [1.65, 1.61, 3.44], "includesElement__electronegativity_sanderson": [0.8100877, 0.2360927, 0.9416494], "includesElement__en_ghosh": [0.1551518, 0.150078, 0.304575], "includesElement__en_pauling": [1.65, 1.61, 3.44], "includesElement__evaporation_heat": [114.8, 284.1], "includesElement__fusion_heat": [7.28, 10.75], "includesElement__glawe_number": [74, 78, 97], "includesElement__group_id": [12, 13, 16], "includesElement__heat_of_formation": [130.4, 330.9, 249.229], "includesElement__is_radioactive": [false], "includesElement__lattice_constant": [2.66, 4.05, 6.83], "includesElement__mendeleev_number": [77, 82, 99], "includesElement__molar_heat_capacity": [25.39, 24.2, 29.378], "includesElement__period": [4, 3, 2], "includesElement__pettifor_number": [76, 80, 101], "includesElement__specific_heat_capacity": [0.388, 0.897, 0.918], "includesElement__vdw_radius": [201.0, 184.0, 152.0], "includesElement__vdw_radius_alvarez": [239.0, 225.0, 150.0], "includesElement__vdw_radius_mm3": [229.0, 236.0, 182.0], "includesElement__vdw_radius_uff": [276.3, 449.9, 350.0], "includesElement__abundance_sea": [0.0049, 0.002, 857000.0], "includesElement__atomic_weight_uncertainty": [0.02, 7e-07], "includesElement__c6_gb": [276.0, 520.0, 16.7], "includesElement__covalent_radius_bragg": [132.0, 135.0, 65.0], "includesElement__electronegativity_allen": [9.395, 9.539, 21.36], "includesElement__en_allen": [9.395, 9.539, 21.36], "includesElement__metallic_radius": [121.0, 125.0], "includesElement__metallic_radius_c12": [134.0, 143.0], "includesElement__thermal_conductivity": [116.0, 237.0, 0.027], "includesElement__vdw_radius_batsanov": [210.0, 155.0], "includesElement__c6": [284.0, 528.0, 15.6], "includesElement__gas_basicity": [586.0, 459.6], "includesElement__proton_affinity": [608.6, 485.2], "includesElement__covalent_radius_pyykko_triple": [111.0, 53.0], "includesElement__discovery_year": [1825, 1774], "includesElement__electron_affinity": [0.43283, 1.461113], "includesElement__is_monoisotopic": [true], "includesElement__vdw_radius_dreiding": [439.0, 340.46], "includesElement__vdw_radius_truhlar": [184.0], "includesElement__vdw_radius_bondi": [152.0], "includesElement__vdw_radius_rt": [158.0], "formula": ["Al4O8Zn2"], "spacegroup": ["227"], "thermalConductivity": [11.6634], "icsd": ["163268"], "band_gap": [3.846], "density": [4.625889], "density_atomic": [9.403367], "deprecated": [false], "efermi": [4.082337], "energy_above_hull": [0.0], "energy_per_atom": [-7.098607], "formation_energy_per_atom": [-3.018614], "is_gap_direct": [false], "is_magnetic": [false], "is_metal": [false], "is_stable": [true], "nelements": [3], "nsites": [14], "num_magnetic_sites": [0], "num_unique_magnetic_sites": [0], "theoretical": [false], "total_magnetization": [0.0], "total_magnetization_normalized_formula_units": [0.0], "total_magnetization_normalized_vol": [0.0], "uncorrected_energy_per_atom": [-9.540277], "volume": [131.6471], "cbm": [7.8218], "e_electronic": [3.447734], "e_ionic": [5.834197], "e_total": [9.281931], "equilibrium_reaction_energy_per_atom": [-0.06185073], "n": [1.856808], "vbm": [3.9758]}