{"includesElement": ["", "Ga", "Fe", "Co"], "includesElement___series_id": [7, 8], "includesElement__abundance_crust": [19.0, 56300.0, 25.0], "includesElement__atomic_number": [31, 26, 27], "includesElement__atomic_radius": [130.0, 140.0, 135.0], "includesElement__atomic_radius_rahm": [233.0, 237.0], "includesElement__atomic_volume": [11.8, 7.1, 6.7], "includesElement__atomic_weight": [69.723, 55.845, 58.93319], "includesElement__covalent_radius_cordero": [122.0, 142.0, 138.0], "includesElement__covalent_radius_pyykko": [124.0, 116.0, 111.0], "includesElement__covalent_radius_pyykko_double": [117.0, 109.0, 103.0], "includesElement__covalent_radius_pyykko_triple": [121.0, 102.0, 96.0], "includesElement__density": [5.91, 7.87, 8.86], "includesElement__dipole_polarizability": [50.0, 62.0, 55.0], "includesElement__dipole_polarizability_unc": [3.0, 4.0], "includesElement__discovery_year": [1875, 1739], "includesElement__electron_affinity": [0.43, 0.151, 0.6622565], "includesElement__electronegativity_allred-rochow": [0.0003251821, 0.0002786861, 0.0003165327], "includesElement__electronegativity_cottrell-sutton": [0.2008048, 0.1797987, 0.1874437], "includesElement__electronegativity_ghosh": [0.1723773, 0.1392532, 0.1432363], "includesElement__electronegativity_gordy": [0.04032258, 0.03232759, 0.03513514], "includesElement__electronegativity_mulliken": [3.214651, 4.026734, 4.271633], "includesElement__electronegativity_nagle": [0.3914868, 0.5053195, 0.5469655], "includesElement__electronegativity_pauling": [1.81, 1.83, 1.88], "includesElement__electronegativity_sanderson": [0.720541, 0.748727, 0.8832424], "includesElement__en_ghosh": [0.1723773, 0.1392532, 0.1432363], "includesElement__en_pauling": [1.81, 1.83, 1.88], "includesElement__evaporation_heat": [270.3, 340.0, 389.1], "includesElement__fusion_heat": [5.59, 13.8, 15.48], "includesElement__glawe_number": [79, 71, 70], "includesElement__group_id": [13, 8, 9], "includesElement__heat_of_formation": [271.96, 415.5, 426.7], "includesElement__is_radioactive": [false], "includesElement__lattice_constant": [4.51, 2.87, 2.51], "includesElement__mendeleev_number": [83, 59, 63], "includesElement__molar_heat_capacity": [26.03, 25.1, 24.81], "includesElement__period": [4], "includesElement__pettifor_number": [81, 61, 64], "includesElement__specific_heat_capacity": [0.373, 0.449, 0.421], "includesElement__vdw_radius": [187.0, 204.0, 200.0], "includesElement__vdw_radius_alvarez": [232.0, 244.0, 240.0], "includesElement__vdw_radius_mm3": [246.0, 223.0], "includesElement__vdw_radius_uff": [438.3, 291.2, 287.2], "includesElement__abundance_sea": [3e-05, 0.002, 2e-05], "includesElement__atomic_weight_uncertainty": [0.001, 0.002, 4e-06], "includesElement__c6_gb": [456.0, 548.0, 461.0], "includesElement__electronegativity_allen": [10.39, 10.64, 10.86], "includesElement__en_allen": [10.39, 10.64, 10.86], "includesElement__metallic_radius": [125.0, 117.0, 116.0], "includesElement__metallic_radius_c12": [140.0, 126.0, 125.0], "includesElement__thermal_conductivity": [28.1, 80.4, 100.0], "includesElement__vdw_radius_batsanov": [210.0, 205.0, 200.0], "includesElement__c6": [498.0, 482.0, 408.0], "includesElement__vdw_radius_dreiding": [439.0], "includesElement__vdw_radius_bondi": [187.0], "includesElement__covalent_radius_bragg": [140.0, 137.0], "includesElement__gas_basicity": [731.1, 719.8], "includesElement__proton_affinity": [754.0, 742.7], "includesElement__is_monoisotopic": [true], "formula": ["Co2Fe1Ga1"], "spacegroup": ["225"], "thermalConductivity": [20.0452], "icsd": ["102386"], "band_gap": [0.0], "density": [8.881916], "density_atomic": [11.37796], "deprecated": [false], "efermi": [5.653158], "energy_above_hull": [0.0], "energy_per_atom": [-6.669745], "formation_energy_per_atom": [-0.2285073], "homogeneous_poisson": [0.299], "is_gap_direct": [false], "is_magnetic": [true], "is_metal": [true], "is_stable": [true], "nelements": [3], "nsites": [4], "num_magnetic_sites": [3], "num_unique_magnetic_sites": [2], "theoretical": [false], "total_magnetization": [5.097767], "total_magnetization_normalized_formula_units": [5.097767], "total_magnetization_normalized_vol": [0.1120097], "uncorrected_energy_per_atom": [-13.34883], "universal_anisotropy": [1.435], "volume": [45.51184], "equilibrium_reaction_energy_per_atom": [-0.06609361]}