{"includesElement": ["", "Sn", "S", "Sr"], "includesElement___series_id": [7, 1, 4], "includesElement__abundance_crust": [2.3, 350.0, 370.0], "includesElement__atomic_number": [50, 16, 38], "includesElement__atomic_radius": [145.0, 100.0, 200.0], "includesElement__atomic_radius_rahm": [248.0, 214.0, 279.0], "includesElement__atomic_volume": [16.3, 15.5, 33.7], "includesElement__atomic_weight": [118.71, 32.06, 87.62], "includesElement__covalent_radius_cordero": [139.0, 105.0, 195.0], "includesElement__covalent_radius_pyykko": [140.0, 103.0, 185.0], "includesElement__covalent_radius_pyykko_double": [130.0, 94.0, 157.0], "includesElement__covalent_radius_pyykko_triple": [132.0, 95.0, 139.0], "includesElement__density": [7.287, 2.07, 2.64], "includesElement__dipole_polarizability": [53.0, 19.4, 197.2], "includesElement__dipole_polarizability_unc": [6.0, 0.1, 0.2], "includesElement__electron_affinity": [1.112067, 2.077104, 0.048], "includesElement__electronegativity_allred-rochow": [0.0002882653, 0.0005137148, 8.327246e-05], "includesElement__electronegativity_cottrell-sutton": [0.2008909, 0.2300274, 0.1241185], "includesElement__electronegativity_ghosh": [0.178052, 0.23596, 0.1185082], "includesElement__electronegativity_gordy": [0.04035714, 0.05291262, 0.01540541], "includesElement__electronegativity_mulliken": [4.227992, 6.218557, 2.871434], "includesElement__electronegativity_nagle": [0.4225986, 0.6762644, 0.2164584], "includesElement__electronegativity_pauling": [1.96, 2.58, 0.95], "includesElement__electronegativity_sanderson": [0.7622797, 0.6397251, 0.2631786], "includesElement__en_ghosh": [0.178052, 0.23596, 0.1185082], "includesElement__en_pauling": [1.96, 2.58, 0.95], "includesElement__evaporation_heat": [296.0, 10.5, 144.0], "includesElement__fusion_heat": [7.07, 1.23, 9.2], "includesElement__glawe_number": [83, 96, 15], "includesElement__group_id": [14, 16, 2], "includesElement__heat_of_formation": [301.2, 277.17, 164.0], "includesElement__is_radioactive": [false], "includesElement__lattice_constant": [5.82, 10.47, 6.08], "includesElement__mendeleev_number": [90, 100, 8], "includesElement__molar_heat_capacity": [26.99, 22.7, 26.79], "includesElement__period": [5, 3], "includesElement__pettifor_number": [83, 94, 15], "includesElement__specific_heat_capacity": [0.227, 0.708, 0.306], "includesElement__vdw_radius": [217.0, 180.0, 249.0], "includesElement__vdw_radius_alvarez": [242.0, 189.0, 284.0], "includesElement__vdw_radius_mm3": [259.0, 215.0, 300.0], "includesElement__vdw_radius_uff": [439.2, 403.5, 364.1], "includesElement__abundance_sea": [4e-06, 905.0, 7.9], "includesElement__atomic_weight_uncertainty": [0.007, 0.01], "includesElement__c6_gb": [715.0, 140.0, 3230.0], "includesElement__covalent_radius_bragg": [140.0, 102.0, 195.0], "includesElement__electronegativity_allen": [10.79, 15.31, 5.695], "includesElement__en_allen": [10.79, 15.31, 5.695], "includesElement__metallic_radius": [142.0, 104.0, 191.0], "includesElement__metallic_radius_c12": [163.0, 127.0, 215.0], "includesElement__thermal_conductivity": [66.8, 0.27], "includesElement__vdw_radius_batsanov": [225.0, 180.0, 255.0], "includesElement__c6": [659.0, 134.0, 3175.0], "includesElement__vdw_radius_dreiding": [447.0, 403.0], "includesElement__vdw_radius_bondi": [217.0, 180.0], "includesElement__gas_basicity": [640.2], "includesElement__proton_affinity": [664.3], "includesElement__vdw_radius_rt": [181.0], "includesElement__discovery_year": [1790], "includesElement__vdw_radius_truhlar": [249.0], "formula": ["S8Sn2Sr4"], "spacegroup": ["40"], "thermalConductivity": [1.59124], "icsd": ["413024"], "band_gap": [2.4784], "density": [3.658892], "density_atomic": [27.37348], "deprecated": [false], "efermi": [2.284982], "energy_above_hull": [0.0], "energy_per_atom": [-14.05422], "formation_energy_per_atom": [-1.600293], "is_gap_direct": [false], "is_magnetic": [false], "is_metal": [false], "is_stable": [true], "nelements": [3], "nsites": [14], "num_magnetic_sites": [0], "num_unique_magnetic_sites": [0], "theoretical": [false], "total_magnetization": [0.0], "total_magnetization_normalized_formula_units": [0.0], "total_magnetization_normalized_vol": [0.0], "uncorrected_energy_per_atom": [-14.05422], "volume": [383.2287], "cbm": [4.6877], "e_electronic": [5.135212], "e_ionic": [7.301816], "e_total": [12.43703], "equilibrium_reaction_energy_per_atom": [-0.001716744], "n": [2.266101], "vbm": [2.2093], "e_ij_max": [0.61852]}