{"includesElement": ["", "Mg", "O", "Ge"], "includesElement___series_id": [4, 1, 5], "includesElement__abundance_crust": [23300.0, 461000.0, 1.5], "includesElement__atomic_number": [12, 8, 32], "includesElement__atomic_radius": [150.0, 60.0, 125.0], "includesElement__atomic_radius_rahm": [240.0, 171.0, 234.0], "includesElement__atomic_volume": [14.0, 13.6], "includesElement__atomic_weight": [24.305, 15.999, 72.63], "includesElement__covalent_radius_cordero": [141.0, 66.0, 120.0], "includesElement__covalent_radius_pyykko": [139.0, 63.0, 121.0], "includesElement__covalent_radius_pyykko_double": [132.0, 57.0, 111.0], "includesElement__covalent_radius_pyykko_triple": [127.0, 53.0, 114.0], "includesElement__density": [1.74, 0.001308, 5.3234], "includesElement__dipole_polarizability": [71.2, 5.3, 40.0], "includesElement__dipole_polarizability_unc": [0.4, 0.2, 1.0], "includesElement__discovery_year": [1808, 1774, 1886], "includesElement__electronegativity_allred-rochow": [0.0001475079, 0.001146384, 0.0003859026], "includesElement__electronegativity_cottrell-sutton": [0.1431908, 0.2687419, 0.2160884], "includesElement__electronegativity_ghosh": [0.121644, 0.304575, 0.1895892], "includesElement__electronegativity_gordy": [0.0205036, 0.07222222, 0.04669421], "includesElement__electronegativity_mulliken": [3.823117, 7.539584, 4.566073], "includesElement__electronegativity_nagle": [0.3039835, 1.042218, 0.4641589], "includesElement__electronegativity_pauling": [1.31, 3.44, 2.01], "includesElement__electronegativity_sanderson": [0.1524211, 0.9416494, 0.8001471], "includesElement__en_ghosh": [0.121644, 0.304575, 0.1895892], "includesElement__en_pauling": [1.31, 3.44, 2.01], "includesElement__evaporation_heat": [131.8, 328.0], "includesElement__fusion_heat": [9.2, 36.8], "includesElement__glawe_number": [73, 97, 84], "includesElement__group_id": [2, 16, 14], "includesElement__heat_of_formation": [147.1, 249.229, 372.0], "includesElement__is_radioactive": [false], "includesElement__lattice_constant": [3.21, 6.83, 5.66], "includesElement__mendeleev_number": [76, 99, 89], "includesElement__molar_heat_capacity": [24.869, 29.378, 23.222], "includesElement__period": [3, 2, 4], "includesElement__pettifor_number": [73, 101, 84], "includesElement__specific_heat_capacity": [1.023, 0.918, 0.32], "includesElement__vdw_radius": [173.0, 152.0, 211.0], "includesElement__vdw_radius_alvarez": [251.0, 150.0, 229.0], "includesElement__vdw_radius_mm3": [243.0, 182.0, 244.0], "includesElement__vdw_radius_uff": [302.1, 350.0, 428.0], "includesElement__abundance_sea": [1290.0, 857000.0, 5e-05], "includesElement__c6_gb": [629.0, 16.7, 365.0], "includesElement__covalent_radius_bragg": [142.0, 65.0], "includesElement__electronegativity_allen": [7.646, 21.36, 11.8], "includesElement__en_allen": [7.646, 21.36, 11.8], "includesElement__metallic_radius": [136.0, 124.0], "includesElement__metallic_radius_c12": [160.0, 144.0], "includesElement__thermal_conductivity": [156.0, 0.027, 60.2], "includesElement__vdw_radius_batsanov": [220.0, 155.0, 210.0], "includesElement__c6": [626.0, 15.6, 354.0], "includesElement__gas_basicity": [797.3, 459.6], "includesElement__proton_affinity": [819.6, 485.2], "includesElement__vdw_radius_bondi": [173.0, 152.0], "includesElement__electron_affinity": [1.461113, 1.232712], "includesElement__vdw_radius_dreiding": [340.46, 427.0], "includesElement__vdw_radius_rt": [158.0], "includesElement__atomic_weight_uncertainty": [0.008], "includesElement__vdw_radius_truhlar": [211.0], "formula": ["Ge2Mg2O6"], "spacegroup": ["63"], "thermalConductivity": [4.25803], "icsd": ["160824"], "band_gap": [2.4744], "density": [5.277937], "density_atomic": [9.120376], "deprecated": [false], "efermi": [4.091147], "energy_above_hull": [0.1296794], "energy_per_atom": [-9.426607], "formation_energy_per_atom": [-2.24196], "homogeneous_poisson": [0.372], "is_gap_direct": [false], "is_magnetic": [false], "is_metal": [false], "is_stable": [false], "nelements": [3], "nsites": [10], "num_magnetic_sites": [0], "num_unique_magnetic_sites": [0], "theoretical": [false], "total_magnetization": [0.0], "total_magnetization_normalized_formula_units": [0.0], "total_magnetization_normalized_vol": [0.0], "uncorrected_energy_per_atom": [-9.426607], "universal_anisotropy": [20.999], "volume": [91.20376], "cbm": [6.4977], "vbm": [4.0233]}