{"includesElement": ["", "Tl", "O", "Cl"], "includesElement___series_id": [7, 1, 6], "includesElement__abundance_crust": [0.85, 461000.0, 145.0], "includesElement__atomic_number": [81, 8, 17], "includesElement__atomic_radius": [190.0, 60.0, 100.0], "includesElement__atomic_radius_rahm": [242.0, 171.0, 206.0], "includesElement__atomic_volume": [17.2, 14.0, 18.7], "includesElement__atomic_weight": [204.38, 15.999, 35.45], "includesElement__covalent_radius_cordero": [145.0, 66.0, 102.0], "includesElement__covalent_radius_pyykko": [144.0, 63.0, 99.0], "includesElement__covalent_radius_pyykko_double": [142.0, 57.0, 95.0], "includesElement__covalent_radius_pyykko_triple": [150.0, 53.0, 93.0], "includesElement__density": [11.8, 0.001308, 0.002898], "includesElement__dipole_polarizability": [50.0, 5.3, 14.6], "includesElement__dipole_polarizability_unc": [2.0, 0.2, 0.1], "includesElement__discovery_year": [1861, 1774], "includesElement__electron_affinity": [0.377, 1.461113, 3.612725], "includesElement__electronegativity_allred-rochow": [0.0002411265, 0.001146384, 0.0006223855], "includesElement__electronegativity_cottrell-sutton": [0.186339, 0.2687419, 0.248226], "includesElement__electronegativity_ghosh": [0.173447, 0.304575, 0.263803], "includesElement__electronegativity_gordy": [0.03472222, 0.07222222, 0.06161616], "includesElement__electronegativity_mulliken": [3.242643, 7.539584, 8.290178], "includesElement__electronegativity_nagle": [0.3914868, 1.042218, 0.7826755], "includesElement__electronegativity_pauling": [1.8, 3.44, 3.16], "includesElement__electronegativity_sanderson": [0.9245096, 0.9416494, 0.8123773], "includesElement__en_ghosh": [0.173447, 0.304575, 0.263803], "includesElement__en_pauling": [1.8, 3.44, 3.16], "includesElement__evaporation_heat": [162.4, 20.41], "includesElement__fusion_heat": [4.31, 6.41], "includesElement__glawe_number": [81, 97, 101], "includesElement__group_id": [13, 16, 17], "includesElement__heat_of_formation": [182.2, 249.229, 121.302], "includesElement__is_radioactive": [false], "includesElement__lattice_constant": [3.46, 6.83, 6.24], "includesElement__mendeleev_number": [85, 99, 107], "includesElement__molar_heat_capacity": [26.32, 29.378, 33.949], "includesElement__period": [6, 2, 3], "includesElement__pettifor_number": [78, 101, 99], "includesElement__specific_heat_capacity": [0.129, 0.918, 0.479], "includesElement__vdw_radius": [196.0, 152.0, 175.0], "includesElement__vdw_radius_alvarez": [247.0, 150.0, 182.0], "includesElement__vdw_radius_mm3": [259.0, 182.0, 207.0], "includesElement__vdw_radius_uff": [434.7, 350.0, 394.7], "includesElement__abundance_sea": [1.9e-05, 857000.0, 19400.0], "includesElement__c6_gb": [509.0, 16.7, 97.1], "includesElement__covalent_radius_bragg": [190.0, 65.0, 105.0], "includesElement__metallic_radius": [144.0], "includesElement__metallic_radius_c12": [160.0, 91.0], "includesElement__thermal_conductivity": [46.1, 0.027, 0.009], "includesElement__vdw_radius_batsanov": [220.0, 155.0, 180.0], "includesElement__vdw_radius_bondi": [196.0, 152.0, 175.0], "includesElement__electronegativity_allen": [21.36, 16.97], "includesElement__en_allen": [21.36, 16.97], "includesElement__c6": [15.6, 94.6], "includesElement__vdw_radius_dreiding": [340.46, 395.03], "includesElement__gas_basicity": [459.6, 490.1], "includesElement__proton_affinity": [485.2, 513.6], "includesElement__vdw_radius_rt": [158.0, 176.0], "formula": ["Cl1O4Tl1"], "spacegroup": ["216"], "thermalConductivity": [1.9836], "icsd": ["33564"], "band_gap": [4.5707], "density": [4.725332], "density_atomic": [17.79515], "deprecated": [false], "efermi": [-0.4038258], "energy_above_hull": [0.0], "energy_per_atom": [-4.701775], "formation_energy_per_atom": [-0.6969306], "homogeneous_poisson": [0.311], "is_gap_direct": [false], "is_magnetic": [false], "is_metal": [false], "is_stable": [true], "nelements": [3], "nsites": [6], "num_magnetic_sites": [0], "num_unique_magnetic_sites": [0], "theoretical": [false], "total_magnetization": [0.0], "total_magnetization_normalized_formula_units": [0.0], "total_magnetization_normalized_vol": [0.0], "uncorrected_energy_per_atom": [-14.13388], "universal_anisotropy": [0.055], "volume": [106.7709], "cbm": [4.1217], "e_electronic": [2.511246], "e_ionic": [19.39205], "e_total": [21.9033], "equilibrium_reaction_energy_per_atom": [-0.03358138], "n": [1.584691], "vbm": [-0.449], "e_ij_max": [0.1966606]}