{"includesElement": ["", "Sn", "Tb", "Au"], "includesElement___series_id": [7, 9, 8], "includesElement__abundance_crust": [2.3, 1.2, 0.004], "includesElement__atomic_number": [50, 65, 79], "includesElement__atomic_radius": [145.0, 175.0, 135.0], "includesElement__atomic_radius_rahm": [248.0, 276.0, 226.0], "includesElement__atomic_volume": [16.3, 19.2, 10.2], "includesElement__atomic_weight": [118.71, 158.9254, 196.9666], "includesElement__covalent_radius_cordero": [139.0, 194.0, 136.0], "includesElement__covalent_radius_pyykko": [140.0, 168.0, 124.0], "includesElement__covalent_radius_pyykko_double": [130.0, 135.0, 121.0], "includesElement__covalent_radius_pyykko_triple": [132.0, 123.0], "includesElement__density": [7.287, 8.23, 19.3], "includesElement__dipole_polarizability": [53.0, 170.0, 36.0], "includesElement__dipole_polarizability_unc": [6.0, 20.0, 3.0], "includesElement__electron_affinity": [1.112067, 1.165, 2.30863], "includesElement__electronegativity_allred-rochow": [0.0002882653, 0.0001009779, 0.0002406348], "includesElement__electronegativity_cottrell-sutton": [0.2008909, 0.130247, 0.1727388], "includesElement__electronegativity_ghosh": [0.178052, 0.198863, 0.26137], "includesElement__electronegativity_gordy": [0.04035714, 0.01696429, 0.02983871], "includesElement__electronegativity_mulliken": [4.227992, 3.5144, 5.767091], "includesElement__electronegativity_nagle": [0.4225986, 0.4014652, 0.67354], "includesElement__electronegativity_pauling": [1.96, 2.4], "includesElement__electronegativity_sanderson": [0.7622797, 0.5163695, 1.426701], "includesElement__en_ghosh": [0.178052, 0.198863, 0.26137], "includesElement__en_pauling": [1.96, 2.4], "includesElement__evaporation_heat": [296.0, 389.0, 340.0], "includesElement__fusion_heat": [7.07, 12.68], "includesElement__glawe_number": [83, 25, 66], "includesElement__group_id": [14, 11], "includesElement__heat_of_formation": [301.2, 388.7, 368.2], "includesElement__is_radioactive": [false], "includesElement__lattice_constant": [5.82, 3.6, 4.08], "includesElement__mendeleev_number": [90, 29, 73], "includesElement__molar_heat_capacity": [26.99, 28.91, 25.418], "includesElement__period": [5, 6], "includesElement__pettifor_number": [83, 26, 70], "includesElement__specific_heat_capacity": [0.227, 0.182, 0.129], "includesElement__vdw_radius": [217.0, 233.0, 214.0], "includesElement__vdw_radius_alvarez": [242.0, 279.0, 232.0], "includesElement__vdw_radius_mm3": [259.0, 270.0, 243.0], "includesElement__vdw_radius_uff": [439.2, 345.1, 329.3], "includesElement__abundance_sea": [4e-06, 1.4e-07], "includesElement__atomic_weight_uncertainty": [0.007, 2e-05, 5e-06], "includesElement__c6_gb": [715.0, 2590.0, 427.0], "includesElement__covalent_radius_bragg": [140.0], "includesElement__electronegativity_allen": [10.79, 11.33], "includesElement__en_allen": [10.79, 11.33], "includesElement__metallic_radius": [142.0, 134.0], "includesElement__metallic_radius_c12": [163.0, 144.0], "includesElement__thermal_conductivity": [66.8, 11.1, 318.0], "includesElement__vdw_radius_batsanov": [225.0, 210.0], "includesElement__c6": [659.0], "includesElement__vdw_radius_dreiding": [447.0], "includesElement__vdw_radius_bondi": [217.0], "includesElement__discovery_year": [1843], "includesElement__is_monoisotopic": [true], "formula": ["Au2Sn2Tb2"], "spacegroup": ["186"], "thermalConductivity": [2.81761], "icsd": ["54999"], "band_gap": [0.0], "density": [11.1214], "density_atomic": [23.62098], "deprecated": [false], "efermi": [6.467765], "energy_above_hull": [0.0], "energy_per_atom": [-4.799616], "formation_energy_per_atom": [-0.8258439], "is_gap_direct": [false], "is_magnetic": [false], "is_metal": [true], "is_stable": [true], "nelements": [3], "nsites": [6], "num_magnetic_sites": [0], "num_unique_magnetic_sites": [0], "theoretical": [false], "total_magnetization": [0.0], "total_magnetization_normalized_formula_units": [0.0], "total_magnetization_normalized_vol": [0.0], "uncorrected_energy_per_atom": [-36.45204], "volume": [141.7259], "equilibrium_reaction_energy_per_atom": [-0.09531658]}