{"includesElement": ["", "Bi", "Er", "Pt"], "includesElement___series_id": [7, 9, 8], "includesElement__abundance_crust": [0.0085, 3.5, 0.005], "includesElement__atomic_number": [83, 68, 78], "includesElement__atomic_radius": [160.0, 175.0, 135.0], "includesElement__atomic_radius_rahm": [250.0, 272.0, 230.0], "includesElement__atomic_volume": [21.3, 18.4, 9.1], "includesElement__atomic_weight": [208.9804, 167.259, 195.084], "includesElement__covalent_radius_cordero": [148.0, 189.0, 136.0], "includesElement__covalent_radius_pyykko": [151.0, 165.0, 123.0], "includesElement__covalent_radius_pyykko_double": [141.0, 133.0, 112.0], "includesElement__covalent_radius_pyykko_triple": [135.0, 110.0], "includesElement__density": [9.79, 9.07, 21.5], "includesElement__dipole_polarizability": [48.0, 150.0], "includesElement__dipole_polarizability_unc": [4.0, 10.0], "includesElement__electron_affinity": [0.942362, 2.128], "includesElement__electronegativity_allred-rochow": [0.0002763037, 0.0001046832, 0.0002346487], "includesElement__electronegativity_cottrell-sutton": [0.2042593, 0.1314257, 0.1698876], "includesElement__electronegativity_ghosh": [0.182377, 0.212261, 0.25691], "includesElement__electronegativity_gordy": [0.04172185, 0.01727273, 0.02886179], "includesElement__electronegativity_mulliken": [4.113939, 3.05385, 5.543415], "includesElement__electronegativity_nagle": [0.470518, 0.4536061, 0.5928156], "includesElement__electronegativity_pauling": [1.9, 1.24, 2.2], "includesElement__electronegativity_sanderson": [0.8136501, 0.5576573, 1.45101], "includesElement__en_ghosh": [0.182377, 0.212261, 0.25691], "includesElement__en_pauling": [1.9, 1.24, 2.2], "includesElement__evaporation_heat": [172.0, 317.0, 470.0], "includesElement__fusion_heat": [11.0, 21.76], "includesElement__glawe_number": [92, 22, 64], "includesElement__group_id": [15, 10], "includesElement__heat_of_formation": [209.6, 316.4, 565.7], "includesElement__is_radioactive": [false], "includesElement__lattice_constant": [4.75, 3.56, 3.92], "includesElement__mendeleev_number": [97, 35, 69], "includesElement__molar_heat_capacity": [25.52, 28.12, 25.86], "includesElement__period": [6], "includesElement__pettifor_number": [87, 23, 68], "includesElement__specific_heat_capacity": [0.122, 0.168, 0.133], "includesElement__vdw_radius": [207.0, 229.0, 213.0], "includesElement__vdw_radius_alvarez": [254.0, 283.0, 229.0], "includesElement__vdw_radius_mm3": [266.0, 267.0, 239.0], "includesElement__vdw_radius_uff": [437.0, 339.1, 275.4], "includesElement__abundance_sea": [2e-05, 8.7e-07], "includesElement__atomic_weight_uncertainty": [1e-05, 0.003, 0.009], "includesElement__c6_gb": [513.0, 2150.0, 470.0], "includesElement__covalent_radius_bragg": [148.0], "includesElement__electronegativity_allen": [11.9, 10.16], "includesElement__en_allen": [11.9, 10.16], "includesElement__metallic_radius": [151.0, 130.0], "includesElement__metallic_radius_c12": [178.0, 139.0], "includesElement__thermal_conductivity": [7.9, 71.6], "includesElement__vdw_radius_batsanov": [230.0, 205.0], "includesElement__is_monoisotopic": [true], "includesElement__vdw_radius_truhlar": [207.0], "includesElement__discovery_year": [1843, 1735], "formula": ["Bi2Er10Pt4"], "spacegroup": ["140"], "thermalConductivity": [0.939181], "icsd": ["107217"], "band_gap": [0.0], "density": [11.78979], "density_atomic": [25.27197], "deprecated": [false], "efermi": [4.648555], "energy_above_hull": [0.0], "energy_per_atom": [-5.790737], "formation_energy_per_atom": [-0.9380678], "is_gap_direct": [false], "is_magnetic": [false], "is_metal": [true], "is_stable": [true], "nelements": [3], "nsites": [16], "num_magnetic_sites": [0], "num_unique_magnetic_sites": [0], "theoretical": [false], "total_magnetization": [9e-07], "total_magnetization_normalized_formula_units": [4.5e-07], "total_magnetization_normalized_vol": [2.225786e-09], "uncorrected_energy_per_atom": [-42.43685], "volume": [404.3515], "equilibrium_reaction_energy_per_atom": [-4.126563e-05]}