{"includesElement": ["", "Cu", "Ge", "Sr"], "includesElement___series_id": [8, 5, 4], "includesElement__abundance_crust": [60.0, 1.5, 370.0], "includesElement__atomic_number": [29, 32, 38], "includesElement__atomic_radius": [135.0, 125.0, 200.0], "includesElement__atomic_radius_rahm": [217.0, 234.0, 279.0], "includesElement__atomic_volume": [7.1, 13.6, 33.7], "includesElement__atomic_weight": [63.546, 72.63, 87.62], "includesElement__covalent_radius_cordero": [132.0, 120.0, 195.0], "includesElement__covalent_radius_pyykko": [112.0, 121.0, 185.0], "includesElement__covalent_radius_pyykko_double": [115.0, 111.0, 157.0], "includesElement__covalent_radius_pyykko_triple": [120.0, 114.0, 139.0], "includesElement__density": [8.96, 5.3234, 2.64], "includesElement__dipole_polarizability": [46.5, 40.0, 197.2], "includesElement__dipole_polarizability_unc": [0.5, 1.0, 0.2], "includesElement__electron_affinity": [1.235, 1.232712, 0.048], "includesElement__electronegativity_allred-rochow": [0.0002949617, 0.0003859026, 8.327246e-05], "includesElement__electronegativity_cottrell-sutton": [0.1817573, 0.2160884, 0.1241185], "includesElement__electronegativity_ghosh": [0.1511716, 0.1895892, 0.1185082], "includesElement__electronegativity_gordy": [0.03303571, 0.04669421, 0.01540541], "includesElement__electronegativity_mulliken": [4.48069, 4.566073, 2.871434], "includesElement__electronegativity_nagle": [0.6184623, 0.4641589, 0.2164584], "includesElement__electronegativity_pauling": [1.9, 2.01, 0.95], "includesElement__electronegativity_sanderson": [0.9175542, 0.8001471, 0.2631786], "includesElement__en_ghosh": [0.1511716, 0.1895892, 0.1185082], "includesElement__en_pauling": [1.9, 2.01, 0.95], "includesElement__evaporation_heat": [304.6, 328.0, 144.0], "includesElement__fusion_heat": [13.01, 36.8, 9.2], "includesElement__glawe_number": [68, 84, 15], "includesElement__group_id": [11, 14, 2], "includesElement__heat_of_formation": [337.4, 372.0, 164.0], "includesElement__is_radioactive": [false], "includesElement__lattice_constant": [3.61, 5.66, 6.08], "includesElement__mendeleev_number": [71, 89, 8], "includesElement__molar_heat_capacity": [24.44, 23.222, 26.79], "includesElement__period": [4, 5], "includesElement__pettifor_number": [72, 84, 15], "includesElement__specific_heat_capacity": [0.385, 0.32, 0.306], "includesElement__vdw_radius": [196.0, 211.0, 249.0], "includesElement__vdw_radius_alvarez": [238.0, 229.0, 284.0], "includesElement__vdw_radius_mm3": [226.0, 244.0, 300.0], "includesElement__vdw_radius_uff": [349.5, 428.0, 364.1], "includesElement__abundance_sea": [0.00025, 5e-05, 7.9], "includesElement__atomic_weight_uncertainty": [0.003, 0.008, 0.01], "includesElement__c6_gb": [264.0, 365.0, 3230.0], "includesElement__covalent_radius_bragg": [137.0, 195.0], "includesElement__electronegativity_allen": [10.96, 11.8, 5.695], "includesElement__en_allen": [10.96, 11.8, 5.695], "includesElement__metallic_radius": [118.0, 124.0, 191.0], "includesElement__metallic_radius_c12": [128.0, 144.0, 215.0], "includesElement__thermal_conductivity": [401.0, 60.2], "includesElement__vdw_radius_batsanov": [200.0, 210.0, 255.0], "includesElement__c6": [253.0, 354.0, 3175.0], "includesElement__gas_basicity": [632.4], "includesElement__proton_affinity": [655.3], "includesElement__discovery_year": [1886, 1790], "includesElement__vdw_radius_dreiding": [427.0], "includesElement__vdw_radius_truhlar": [211.0, 249.0], "formula": ["Cu2Ge2Sr1"], "spacegroup": ["139"], "thermalConductivity": [4.04382], "icsd": ["410"], "band_gap": [0.0], "density": [6.490938], "density_atomic": [18.41893], "deprecated": [false], "efermi": [5.706901], "energy_above_hull": [0.0], "energy_per_atom": [-4.19361], "formation_energy_per_atom": [-0.3662307], "homogeneous_poisson": [0.276], "is_gap_direct": [false], "is_magnetic": [false], "is_metal": [true], "is_stable": [true], "nelements": [3], "nsites": [5], "num_magnetic_sites": [0], "num_unique_magnetic_sites": [0], "theoretical": [false], "total_magnetization": [0.0], "total_magnetization_normalized_formula_units": [0.0], "total_magnetization_normalized_vol": [0.0], "uncorrected_energy_per_atom": [-13.31089], "universal_anisotropy": [0.295], "volume": [92.09467], "equilibrium_reaction_energy_per_atom": [-0.06042736]}