{"includesElement": ["", "Al", "Ti", "C"], "includesElement___series_id": [7, 8, 1], "includesElement__abundance_crust": [82300.0, 5650.0, 200.0], "includesElement__atomic_number": [13, 22, 6], "includesElement__atomic_radius": [125.0, 140.0, 70.0], "includesElement__atomic_radius_rahm": [239.0, 257.0, 190.0], "includesElement__atomic_volume": [10.0, 10.6, 5.3], "includesElement__atomic_weight": [26.98154, 47.867, 12.011], "includesElement__covalent_radius_cordero": [121.0, 160.0, 73.0], "includesElement__covalent_radius_pyykko": [126.0, 136.0, 75.0], "includesElement__covalent_radius_pyykko_double": [113.0, 117.0, 67.0], "includesElement__covalent_radius_pyykko_triple": [111.0, 108.0, 60.0], "includesElement__density": [2.7, 4.506, 2.2], "includesElement__dipole_polarizability": [57.8, 100.0, 11.3], "includesElement__dipole_polarizability_unc": [1.0, 10.0, 0.2], "includesElement__discovery_year": [1825, 1791], "includesElement__electron_affinity": [0.43283, 0.079, 1.262119], "includesElement__electronegativity_allred-rochow": [0.0002204586, 0.0001703071, 0.0005777778], "includesElement__electronegativity_cottrell-sutton": [0.1666667, 0.1521899, 0.2081666], "includesElement__electronegativity_ghosh": [0.150078, 0.1233637, 0.224776], "includesElement__electronegativity_gordy": [0.02777778, 0.02316176, 0.04333333], "includesElement__electronegativity_mulliken": [3.209299, 3.45356, 6.261208], "includesElement__electronegativity_nagle": [0.3730192, 0.3419952, 0.7073926], "includesElement__electronegativity_pauling": [1.61, 1.54, 2.55], "includesElement__electronegativity_sanderson": [0.2360927, 0.4055462, 0.427525], "includesElement__en_ghosh": [0.150078, 0.1233637, 0.224776], "includesElement__en_pauling": [1.61, 1.54, 2.55], "includesElement__evaporation_heat": [284.1, 422.6], "includesElement__fusion_heat": [10.75, 18.8], "includesElement__glawe_number": [78, 51, 87], "includesElement__group_id": [13, 4, 14], "includesElement__heat_of_formation": [330.9, 473.0, 716.87], "includesElement__is_radioactive": [false], "includesElement__lattice_constant": [4.05, 2.95, 3.57], "includesElement__mendeleev_number": [82, 43, 87], "includesElement__molar_heat_capacity": [24.2, 25.06, 8.517], "includesElement__period": [3, 4, 2], "includesElement__pettifor_number": [80, 51, 95], "includesElement__specific_heat_capacity": [0.897, 0.523, 0.709], "includesElement__vdw_radius": [184.0, 211.0, 170.0], "includesElement__vdw_radius_alvarez": [225.0, 246.0, 177.0], "includesElement__vdw_radius_mm3": [236.0, 239.0, 204.0], "includesElement__vdw_radius_uff": [449.9, 317.5, 385.1], "includesElement__abundance_sea": [0.002, 0.001, 28.0], "includesElement__atomic_weight_uncertainty": [7e-07, 0.001], "includesElement__c6_gb": [520.0, 1200.0, 47.9], "includesElement__covalent_radius_bragg": [135.0, 140.0, 77.0], "includesElement__electronegativity_allen": [9.539, 8.17, 15.05], "includesElement__en_allen": [9.539, 8.17, 15.05], "includesElement__metallic_radius": [125.0, 132.0], "includesElement__metallic_radius_c12": [143.0, 147.0, 86.0], "includesElement__thermal_conductivity": [237.0, 21.9, 1.59], "includesElement__vdw_radius_batsanov": [210.0, 215.0, 170.0], "includesElement__c6": [528.0, 1044.0, 46.6], "includesElement__is_monoisotopic": [true], "includesElement__vdw_radius_dreiding": [439.0, 389.83], "includesElement__vdw_radius_truhlar": [184.0], "includesElement__gas_basicity": [853.7], "includesElement__proton_affinity": [876.0], "includesElement__vdw_radius_bondi": [170.0], "includesElement__vdw_radius_rt": [177.0], "formula": ["Al1C1Ti3"], "spacegroup": ["221"], "thermalConductivity": [21.4351], "icsd": ["163843"], "band_gap": [0.0], "density": [4.181626], "density_atomic": [14.50169], "deprecated": [false], "efermi": [6.780682], "energy_above_hull": [0.0], "energy_per_atom": [-7.924206], "formation_energy_per_atom": [-0.592063], "homogeneous_poisson": [0.225], "is_gap_direct": [false], "is_magnetic": [false], "is_metal": [true], "is_stable": [true], "nelements": [3], "nsites": [5], "num_magnetic_sites": [0], "num_unique_magnetic_sites": [0], "theoretical": [false], "total_magnetization": [1.39e-05], "total_magnetization_normalized_formula_units": [1.39e-05], "total_magnetization_normalized_vol": [1.917018e-07], "uncorrected_energy_per_atom": [-11.74878], "universal_anisotropy": [0.185], "volume": [72.50844], "equilibrium_reaction_energy_per_atom": [-0.01575967]}