{"includesElement": ["", "Mg", "Al", "O"], "includesElement___series_id": [4, 7, 1], "includesElement__abundance_crust": [23300.0, 82300.0, 461000.0], "includesElement__atomic_number": [12, 13, 8], "includesElement__atomic_radius": [150.0, 125.0, 60.0], "includesElement__atomic_radius_rahm": [240.0, 239.0, 171.0], "includesElement__atomic_volume": [14.0, 10.0], "includesElement__atomic_weight": [24.305, 26.98154, 15.999], "includesElement__covalent_radius_cordero": [141.0, 121.0, 66.0], "includesElement__covalent_radius_pyykko": [139.0, 126.0, 63.0], "includesElement__covalent_radius_pyykko_double": [132.0, 113.0, 57.0], "includesElement__covalent_radius_pyykko_triple": [127.0, 111.0, 53.0], "includesElement__density": [1.74, 2.7, 0.001308], "includesElement__dipole_polarizability": [71.2, 57.8, 5.3], "includesElement__dipole_polarizability_unc": [0.4, 1.0, 0.2], "includesElement__discovery_year": [1808, 1825, 1774], "includesElement__electronegativity_allred-rochow": [0.0001475079, 0.0002204586, 0.001146384], "includesElement__electronegativity_cottrell-sutton": [0.1431908, 0.1666667, 0.2687419], "includesElement__electronegativity_ghosh": [0.121644, 0.150078, 0.304575], "includesElement__electronegativity_gordy": [0.0205036, 0.02777778, 0.07222222], "includesElement__electronegativity_mulliken": [3.823117, 3.209299, 7.539584], "includesElement__electronegativity_nagle": [0.3039835, 0.3730192, 1.042218], "includesElement__electronegativity_pauling": [1.31, 1.61, 3.44], "includesElement__electronegativity_sanderson": [0.1524211, 0.2360927, 0.9416494], "includesElement__en_ghosh": [0.121644, 0.150078, 0.304575], "includesElement__en_pauling": [1.31, 1.61, 3.44], "includesElement__evaporation_heat": [131.8, 284.1], "includesElement__fusion_heat": [9.2, 10.75], "includesElement__glawe_number": [73, 78, 97], "includesElement__group_id": [2, 13, 16], "includesElement__heat_of_formation": [147.1, 330.9, 249.229], "includesElement__is_radioactive": [false], "includesElement__lattice_constant": [3.21, 4.05, 6.83], "includesElement__mendeleev_number": [76, 82, 99], "includesElement__molar_heat_capacity": [24.869, 24.2, 29.378], "includesElement__period": [3, 2], "includesElement__pettifor_number": [73, 80, 101], "includesElement__specific_heat_capacity": [1.023, 0.897, 0.918], "includesElement__vdw_radius": [173.0, 184.0, 152.0], "includesElement__vdw_radius_alvarez": [251.0, 225.0, 150.0], "includesElement__vdw_radius_mm3": [243.0, 236.0, 182.0], "includesElement__vdw_radius_uff": [302.1, 449.9, 350.0], "includesElement__abundance_sea": [1290.0, 0.002, 857000.0], "includesElement__c6_gb": [629.0, 520.0, 16.7], "includesElement__covalent_radius_bragg": [142.0, 135.0, 65.0], "includesElement__electronegativity_allen": [7.646, 9.539, 21.36], "includesElement__en_allen": [7.646, 9.539, 21.36], "includesElement__metallic_radius": [136.0, 125.0], "includesElement__metallic_radius_c12": [160.0, 143.0], "includesElement__thermal_conductivity": [156.0, 237.0, 0.027], "includesElement__vdw_radius_batsanov": [220.0, 210.0, 155.0], "includesElement__c6": [626.0, 528.0, 15.6], "includesElement__gas_basicity": [797.3, 459.6], "includesElement__proton_affinity": [819.6, 485.2], "includesElement__vdw_radius_bondi": [173.0, 152.0], "includesElement__electron_affinity": [0.43283, 1.461113], "includesElement__atomic_weight_uncertainty": [7e-07], "includesElement__is_monoisotopic": [true], "includesElement__vdw_radius_dreiding": [439.0, 340.46], "includesElement__vdw_radius_truhlar": [184.0], "includesElement__vdw_radius_rt": [158.0], "formula": ["Al4Mg2O8"], "spacegroup": ["227"], "thermalConductivity": [11.24], "icsd": ["157768"], "band_gap": [5.1095], "density": [3.582136], "density_atomic": [9.421263], "deprecated": [false], "efermi": [4.275326], "energy_above_hull": [0.0], "energy_per_atom": [-7.500496], "formation_energy_per_atom": [-3.367543], "homogeneous_poisson": [0.272], "is_gap_direct": [false], "is_magnetic": [false], "is_metal": [false], "is_stable": [true], "nelements": [3], "nsites": [14], "num_magnetic_sites": [0], "num_unique_magnetic_sites": [0], "theoretical": [false], "total_magnetization": [0.0], "total_magnetization_normalized_formula_units": [0.0], "total_magnetization_normalized_vol": [0.0], "uncorrected_energy_per_atom": [-9.223511], "universal_anisotropy": [1.062], "volume": [131.8977], "cbm": [9.3033], "e_electronic": [3.078943], "e_ionic": [5.397541], "e_total": [8.476483], "equilibrium_reaction_energy_per_atom": [-0.05437661], "n": [1.754692], "vbm": [4.1938]}