{"includesElement": ["", "Al", "O", "Co"], "includesElement___series_id": [7, 1, 8], "includesElement__abundance_crust": [82300.0, 461000.0, 25.0], "includesElement__atomic_number": [13, 8, 27], "includesElement__atomic_radius": [125.0, 60.0, 135.0], "includesElement__atomic_radius_rahm": [239.0, 171.0, 233.0], "includesElement__atomic_volume": [10.0, 14.0, 6.7], "includesElement__atomic_weight": [26.98154, 15.999, 58.93319], "includesElement__covalent_radius_cordero": [121.0, 66.0, 138.0], "includesElement__covalent_radius_pyykko": [126.0, 63.0, 111.0], "includesElement__covalent_radius_pyykko_double": [113.0, 57.0, 103.0], "includesElement__covalent_radius_pyykko_triple": [111.0, 53.0, 96.0], "includesElement__density": [2.7, 0.001308, 8.86], "includesElement__dipole_polarizability": [57.8, 5.3, 55.0], "includesElement__dipole_polarizability_unc": [1.0, 0.2, 4.0], "includesElement__discovery_year": [1825, 1774, 1739], "includesElement__electron_affinity": [0.43283, 1.461113, 0.6622565], "includesElement__electronegativity_allred-rochow": [0.0002204586, 0.001146384, 0.0003165327], "includesElement__electronegativity_cottrell-sutton": [0.1666667, 0.2687419, 0.1874437], "includesElement__electronegativity_ghosh": [0.150078, 0.304575, 0.1432363], "includesElement__electronegativity_gordy": [0.02777778, 0.07222222, 0.03513514], "includesElement__electronegativity_mulliken": [3.209299, 7.539584, 4.271633], "includesElement__electronegativity_nagle": [0.3730192, 1.042218, 0.5469655], "includesElement__electronegativity_pauling": [1.61, 3.44, 1.88], "includesElement__electronegativity_sanderson": [0.2360927, 0.9416494, 0.8832424], "includesElement__en_ghosh": [0.150078, 0.304575, 0.1432363], "includesElement__en_pauling": [1.61, 3.44, 1.88], "includesElement__evaporation_heat": [284.1, 389.1], "includesElement__fusion_heat": [10.75, 15.48], "includesElement__glawe_number": [78, 97, 70], "includesElement__group_id": [13, 16, 9], "includesElement__heat_of_formation": [330.9, 249.229, 426.7], "includesElement__is_radioactive": [false], "includesElement__lattice_constant": [4.05, 6.83, 2.51], "includesElement__mendeleev_number": [82, 99, 63], "includesElement__molar_heat_capacity": [24.2, 29.378, 24.81], "includesElement__period": [3, 2, 4], "includesElement__pettifor_number": [80, 101, 64], "includesElement__specific_heat_capacity": [0.897, 0.918, 0.421], "includesElement__vdw_radius": [184.0, 152.0, 200.0], "includesElement__vdw_radius_alvarez": [225.0, 150.0, 240.0], "includesElement__vdw_radius_mm3": [236.0, 182.0, 223.0], "includesElement__vdw_radius_uff": [449.9, 350.0, 287.2], "includesElement__abundance_sea": [0.002, 857000.0, 2e-05], "includesElement__atomic_weight_uncertainty": [7e-07, 4e-06], "includesElement__c6_gb": [520.0, 16.7, 461.0], "includesElement__covalent_radius_bragg": [135.0, 65.0, 137.0], "includesElement__electronegativity_allen": [9.539, 21.36, 10.86], "includesElement__en_allen": [9.539, 21.36, 10.86], "includesElement__metallic_radius": [125.0, 116.0], "includesElement__metallic_radius_c12": [143.0, 125.0], "includesElement__thermal_conductivity": [237.0, 0.027, 100.0], "includesElement__vdw_radius_batsanov": [210.0, 155.0, 200.0], "includesElement__c6": [528.0, 15.6, 408.0], "includesElement__is_monoisotopic": [true], "includesElement__vdw_radius_dreiding": [439.0, 340.46], "includesElement__vdw_radius_truhlar": [184.0], "includesElement__gas_basicity": [459.6, 719.8], "includesElement__proton_affinity": [485.2, 742.7], "includesElement__vdw_radius_bondi": [152.0], "includesElement__vdw_radius_rt": [158.0], "formula": ["Al4Co2O8"], "spacegroup": ["227"], "thermalConductivity": [9.26437], "icsd": ["290133"], "band_gap": [3.0024], "density": [4.45402], "density_atomic": [9.421319], "deprecated": [false], "efermi": [5.101463], "energy_above_hull": [0.02173583], "energy_per_atom": [-7.779964], "formation_energy_per_atom": [-2.860875], "is_gap_direct": [false], "is_magnetic": [true], "is_metal": [false], "is_stable": [false], "nelements": [3], "nsites": [14], "num_magnetic_sites": [2], "num_unique_magnetic_sites": [1], "theoretical": [false], "total_magnetization": [6.0], "total_magnetization_normalized_formula_units": [3.0], "total_magnetization_normalized_vol": [0.04548954], "uncorrected_energy_per_atom": [-7.153393], "volume": [131.8985], "cbm": [8.0736], "e_electronic": [3.619585], "e_ionic": [5.887483], "e_total": [9.507068], "n": [1.902521], "vbm": [5.0712]}