{"includesElement": ["", "Li", "O", "Nb"], "includesElement___series_id": [3, 1, 8], "includesElement__abundance_crust": [20.0, 461000.0], "includesElement__atomic_number": [3, 8, 41], "includesElement__atomic_radius": [145.0, 60.0], "includesElement__atomic_radius_rahm": [220.0, 171.0, 251.0], "includesElement__atomic_volume": [13.1, 14.0, 10.8], "includesElement__atomic_weight": [6.94, 15.999, 92.90637], "includesElement__covalent_radius_cordero": [128.0, 66.0, 164.0], "includesElement__covalent_radius_pyykko": [133.0, 63.0, 147.0], "includesElement__covalent_radius_pyykko_double": [124.0, 57.0, 125.0], "includesElement__density": [0.534, 0.001308, 8.57], "includesElement__dipole_polarizability": [164.1125, 5.3, 98.0], "includesElement__dipole_polarizability_unc": [0.0005, 0.2, 8.0], "includesElement__discovery_year": [1817, 1774, 1801], "includesElement__electron_affinity": [0.618049, 1.461113, 0.917406], "includesElement__electronegativity_allred-rochow": [7.3492e-05, 0.001146384, 0.0001295756], "includesElement__electronegativity_cottrell-sutton": [0.09886575, 0.2687419, 0.1380131], "includesElement__electronegativity_ghosh": [0.105093, 0.304575, 0.1280782], "includesElement__electronegativity_gordy": [0.009774436, 0.07222222, 0.01904762], "includesElement__electronegativity_mulliken": [3.004882, 7.539584, 3.838128], "includesElement__electronegativity_nagle": [0.1826499, 1.042218, 0.3708924], "includesElement__electronegativity_pauling": [0.98, 3.44, 1.6], "includesElement__electronegativity_sanderson": [0.04886793, 0.9416494, 0.5561695], "includesElement__en_ghosh": [0.105093, 0.304575, 0.1280782], "includesElement__en_pauling": [0.98, 3.44, 1.6], "includesElement__evaporation_heat": [148.0, 680.0], "includesElement__fusion_heat": [2.89, 26.8], "includesElement__glawe_number": [12, 97, 53], "includesElement__group_id": [1, 16, 5], "includesElement__heat_of_formation": [159.3, 249.229, 733.0], "includesElement__is_radioactive": [false], "includesElement__lattice_constant": [3.49, 6.83, 3.3], "includesElement__mendeleev_number": [1, 99, 48], "includesElement__molar_heat_capacity": [24.86, 29.378, 24.6], "includesElement__period": [2, 5], "includesElement__pettifor_number": [12, 101, 52], "includesElement__specific_heat_capacity": [3.582, 0.918, 0.265], "includesElement__vdw_radius": [182.0, 152.0, 218.0], "includesElement__vdw_radius_alvarez": [212.0, 150.0, 256.0], "includesElement__vdw_radius_mm3": [255.0, 182.0, 243.0], "includesElement__vdw_radius_uff": [245.1, 350.0, 316.5], "includesElement__abundance_sea": [0.18, 857000.0, 1e-05], "includesElement__c6_gb": [1410.0, 16.7, 1140.0], "includesElement__covalent_radius_bragg": [150.0, 65.0], "includesElement__electronegativity_allen": [5.392, 21.36, 8.34], "includesElement__en_allen": [5.392, 21.36, 8.34], "includesElement__metallic_radius": [123.0, 134.0], "includesElement__metallic_radius_c12": [155.0, 146.0], "includesElement__thermal_conductivity": [84.8, 0.027, 53.7], "includesElement__vdw_radius_batsanov": [220.0, 155.0, 215.0], "includesElement__c6": [1392.0, 15.6], "includesElement__vdw_radius_bondi": [181.0, 152.0], "includesElement__covalent_radius_pyykko_triple": [53.0, 116.0], "includesElement__vdw_radius_dreiding": [340.46], "includesElement__gas_basicity": [459.6], "includesElement__proton_affinity": [485.2], "includesElement__vdw_radius_rt": [158.0], "includesElement__atomic_weight_uncertainty": [2e-05], "includesElement__is_monoisotopic": [true], "formula": ["Li2Nb2O4"], "spacegroup": ["194"], "thermalConductivity": [17.7999], "icsd": ["300243"], "band_gap": [1.5795], "density": [5.667092], "density_atomic": [9.658205], "deprecated": [false], "efermi": [5.228178], "energy_above_hull": [0.0], "energy_per_atom": [-8.16292], "formation_energy_per_atom": [-2.684232], "homogeneous_poisson": [0.236], "is_gap_direct": [true], "is_magnetic": [false], "is_metal": [false], "is_stable": [true], "nelements": [3], "nsites": [8], "num_magnetic_sites": [0], "num_unique_magnetic_sites": [0], "theoretical": [false], "total_magnetization": [0.0], "total_magnetization_normalized_formula_units": [0.0], "total_magnetization_normalized_vol": [0.0], "uncorrected_energy_per_atom": [-12.32326], "universal_anisotropy": [1.257], "volume": [77.26564], "cbm": [6.7928], "e_electronic": [8.69647], "e_ionic": [7.765896], "e_total": [16.46237], "equilibrium_reaction_energy_per_atom": [-0.1124314], "n": [2.948978], "vbm": [5.2133]}