{"includesElement": ["", "Ba", "Cu", "O"], "includesElement___series_id": [4, 8, 1], "includesElement__abundance_crust": [425.0, 60.0, 461000.0], "includesElement__atomic_number": [56, 29, 8], "includesElement__atomic_radius": [215.0, 135.0, 60.0], "includesElement__atomic_radius_rahm": [293.0, 217.0, 171.0], "includesElement__atomic_volume": [39.0, 7.1, 14.0], "includesElement__atomic_weight": [137.327, 63.546, 15.999], "includesElement__covalent_radius_cordero": [215.0, 132.0, 66.0], "includesElement__covalent_radius_pyykko": [196.0, 112.0, 63.0], "includesElement__covalent_radius_pyykko_double": [161.0, 115.0, 57.0], "includesElement__covalent_radius_pyykko_triple": [149.0, 120.0, 53.0], "includesElement__density": [3.62, 8.96, 0.001308], "includesElement__dipole_polarizability": [272.0, 46.5, 5.3], "includesElement__dipole_polarizability_unc": [10.0, 0.5, 0.2], "includesElement__discovery_year": [1808, 1774], "includesElement__electron_affinity": [0.14462, 1.235, 1.461113], "includesElement__electronegativity_allred-rochow": [7.418784e-05, 0.0002949617, 0.001146384], "includesElement__electronegativity_cottrell-sutton": [0.1205853, 0.1817573, 0.2687419], "includesElement__electronegativity_ghosh": [0.1586786, 0.1511716, 0.304575], "includesElement__electronegativity_gordy": [0.01454082, 0.03303571, 0.07222222], "includesElement__electronegativity_mulliken": [2.678142, 4.48069, 7.539584], "includesElement__electronegativity_nagle": [0.1944556, 0.6184623, 1.042218], "includesElement__electronegativity_pauling": [0.89, 1.9, 3.44], "includesElement__electronegativity_sanderson": [0.3032951, 0.9175542, 0.9416494], "includesElement__en_ghosh": [0.1586786, 0.1511716, 0.304575], "includesElement__en_pauling": [0.89, 1.9, 3.44], "includesElement__evaporation_heat": [142.0, 304.6], "includesElement__fusion_heat": [7.66, 13.01], "includesElement__glawe_number": [14, 68, 97], "includesElement__group_id": [2, 11, 16], "includesElement__heat_of_formation": [179.1, 337.4, 249.229], "includesElement__is_radioactive": [false], "includesElement__lattice_constant": [5.02, 3.61, 6.83], "includesElement__mendeleev_number": [9, 71, 99], "includesElement__molar_heat_capacity": [28.07, 24.44, 29.378], "includesElement__period": [6, 4, 2], "includesElement__pettifor_number": [14, 72, 101], "includesElement__specific_heat_capacity": [0.204, 0.385, 0.918], "includesElement__vdw_radius": [268.0, 196.0, 152.0], "includesElement__vdw_radius_alvarez": [303.0, 238.0, 150.0], "includesElement__vdw_radius_mm3": [307.0, 226.0, 182.0], "includesElement__vdw_radius_uff": [370.3, 349.5, 350.0], "includesElement__abundance_sea": [0.013, 0.00025, 857000.0], "includesElement__atomic_weight_uncertainty": [0.007, 0.003], "includesElement__c6_gb": [5540.0, 264.0, 16.7], "includesElement__covalent_radius_bragg": [210.0, 137.0, 65.0], "includesElement__electronegativity_allen": [5.211, 10.96, 21.36], "includesElement__en_allen": [5.211, 10.96, 21.36], "includesElement__metallic_radius": [198.0, 118.0], "includesElement__metallic_radius_c12": [222.0, 128.0], "includesElement__vdw_radius_batsanov": [270.0, 200.0, 155.0], "includesElement__vdw_radius_truhlar": [268.0], "includesElement__thermal_conductivity": [401.0, 0.027], "includesElement__c6": [253.0, 15.6], "includesElement__gas_basicity": [632.4, 459.6], "includesElement__proton_affinity": [655.3, 485.2], "includesElement__vdw_radius_dreiding": [340.46], "includesElement__vdw_radius_bondi": [152.0], "includesElement__vdw_radius_rt": [158.0], "formula": ["Ba1Cu3O4"], "spacegroup": ["65"], "thermalConductivity": [3.57166], "icsd": ["83079"], "band_gap": [0.0], "density": [5.385531], "density_atomic": [15.10689], "deprecated": [false], "efermi": [2.773774], "energy_above_hull": [0.01376288], "energy_per_atom": [-5.707703], "formation_energy_per_atom": [-1.454497], "homogeneous_poisson": [0.314], "is_gap_direct": [false], "is_magnetic": [true], "is_metal": [true], "is_stable": [false], "nelements": [3], "nsites": [8], "num_magnetic_sites": [3], "num_unique_magnetic_sites": [2], "theoretical": [false], "total_magnetization": [0.999584], "total_magnetization_normalized_formula_units": [0.999584], "total_magnetization_normalized_vol": [0.008270926], "uncorrected_energy_per_atom": [-11.6709], "universal_anisotropy": [3.24], "volume": [120.8552]}