{"includesElement": ["", "Mg", "Si", "O"], "includesElement___series_id": [4, 5, 1], "includesElement__abundance_crust": [23300.0, 282000.0, 461000.0], "includesElement__atomic_number": [12, 14, 8], "includesElement__atomic_radius": [150.0, 110.0, 60.0], "includesElement__atomic_radius_rahm": [240.0, 232.0, 171.0], "includesElement__atomic_volume": [14.0, 12.1], "includesElement__atomic_weight": [24.305, 28.085, 15.999], "includesElement__covalent_radius_cordero": [141.0, 111.0, 66.0], "includesElement__covalent_radius_pyykko": [139.0, 116.0, 63.0], "includesElement__covalent_radius_pyykko_double": [132.0, 107.0, 57.0], "includesElement__covalent_radius_pyykko_triple": [127.0, 102.0, 53.0], "includesElement__density": [1.74, 2.3296, 0.001308], "includesElement__dipole_polarizability": [71.2, 37.3, 5.3], "includesElement__dipole_polarizability_unc": [0.4, 0.7, 0.2], "includesElement__discovery_year": [1808, 1824, 1774], "includesElement__electronegativity_allred-rochow": [0.0001475079, 0.0003084126, 0.001146384], "includesElement__electronegativity_cottrell-sutton": [0.1431908, 0.1891451, 0.2687419], "includesElement__electronegativity_ghosh": [0.121644, 0.178503, 0.304575], "includesElement__electronegativity_gordy": [0.0205036, 0.03577586, 0.07222222], "includesElement__electronegativity_mulliken": [3.823117, 4.770602, 7.539584], "includesElement__electronegativity_nagle": [0.3039835, 0.4750986, 1.042218], "includesElement__electronegativity_pauling": [1.31, 1.9, 3.44], "includesElement__electronegativity_sanderson": [0.1524211, 0.3468158, 0.9416494], "includesElement__en_ghosh": [0.121644, 0.178503, 0.304575], "includesElement__en_pauling": [1.31, 1.9, 3.44], "includesElement__evaporation_heat": [131.8, 383.0], "includesElement__fusion_heat": [9.2, 50.6], "includesElement__glawe_number": [73, 85, 97], "includesElement__group_id": [2, 14, 16], "includesElement__heat_of_formation": [147.1, 450.0, 249.229], "includesElement__is_radioactive": [false], "includesElement__lattice_constant": [3.21, 5.43, 6.83], "includesElement__mendeleev_number": [76, 88, 99], "includesElement__molar_heat_capacity": [24.869, 19.99, 29.378], "includesElement__period": [3, 2], "includesElement__pettifor_number": [73, 85, 101], "includesElement__specific_heat_capacity": [1.023, 0.712, 0.918], "includesElement__vdw_radius": [173.0, 210.0, 152.0], "includesElement__vdw_radius_alvarez": [251.0, 219.0, 150.0], "includesElement__vdw_radius_mm3": [243.0, 229.0, 182.0], "includesElement__vdw_radius_uff": [302.1, 429.5, 350.0], "includesElement__abundance_sea": [1290.0, 2.2, 857000.0], "includesElement__c6_gb": [629.0, 308.0, 16.7], "includesElement__covalent_radius_bragg": [142.0, 117.0, 65.0], "includesElement__electronegativity_allen": [7.646, 11.33, 21.36], "includesElement__en_allen": [7.646, 11.33, 21.36], "includesElement__metallic_radius": [136.0, 117.0], "includesElement__metallic_radius_c12": [160.0, 138.0], "includesElement__thermal_conductivity": [156.0, 149.0, 0.027], "includesElement__vdw_radius_batsanov": [220.0, 210.0, 155.0], "includesElement__c6": [626.0, 305.0, 15.6], "includesElement__gas_basicity": [797.3, 814.1, 459.6], "includesElement__proton_affinity": [819.6, 837.0, 485.2], "includesElement__vdw_radius_bondi": [173.0, 210.0, 152.0], "includesElement__electron_affinity": [1.389521, 1.461113], "includesElement__vdw_radius_dreiding": [427.0, 340.46], "includesElement__vdw_radius_rt": [158.0], "formula": ["Mg2O6Si2"], "spacegroup": ["63"], "thermalConductivity": [15.2027], "icsd": ["158959"], "band_gap": [4.6425], "density": [3.959699], "density_atomic": [8.4198], "deprecated": [false], "efermi": [6.466333], "energy_above_hull": [0.2611188], "energy_per_atom": [-7.349853], "formation_energy_per_atom": [-2.967337], "homogeneous_poisson": [0.269], "is_gap_direct": [true], "is_magnetic": [false], "is_metal": [false], "is_stable": [false], "nelements": [3], "nsites": [10], "num_magnetic_sites": [0], "num_unique_magnetic_sites": [0], "theoretical": [false], "total_magnetization": [0.0], "total_magnetization_normalized_formula_units": [0.0], "total_magnetization_normalized_vol": [0.0], "uncorrected_energy_per_atom": [-6.937653], "universal_anisotropy": [1.601], "volume": [84.198], "cbm": [11.0459], "vbm": [6.4034]}