{"includesElement": ["", "O", "Ti", "La"], "includesElement___series_id": [1, 8, 9], "includesElement__abundance_crust": [461000.0, 5650.0, 39.0], "includesElement__atomic_number": [8, 22, 57], "includesElement__atomic_radius": [60.0, 140.0, 195.0], "includesElement__atomic_radius_rahm": [171.0, 257.0, 284.0], "includesElement__atomic_volume": [14.0, 10.6, 22.5], "includesElement__atomic_weight": [15.999, 47.867, 138.9055], "includesElement__covalent_radius_cordero": [66.0, 160.0, 207.0], "includesElement__covalent_radius_pyykko": [63.0, 136.0, 180.0], "includesElement__covalent_radius_pyykko_double": [57.0, 117.0, 139.0], "includesElement__covalent_radius_pyykko_triple": [53.0, 108.0, 139.0], "includesElement__density": [0.001308, 4.506, 6.15], "includesElement__dipole_polarizability": [5.3, 100.0, 215.0], "includesElement__dipole_polarizability_unc": [0.2, 10.0, 20.0], "includesElement__discovery_year": [1774, 1791, 1839], "includesElement__electron_affinity": [1.461113, 0.079, 0.47], "includesElement__electronegativity_allred-rochow": [0.001146384, 0.0001703071, 9.259259e-05], "includesElement__electronegativity_cottrell-sutton": [0.2687419, 0.1521899, 0.1290994], "includesElement__electronegativity_ghosh": [0.304575, 0.1233637, 0.163142], "includesElement__electronegativity_gordy": [0.07222222, 0.02316176, 0.01666667], "includesElement__electronegativity_mulliken": [7.539584, 3.45356, 3.02345], "includesElement__electronegativity_nagle": [1.042218, 0.3419952, 0.240747], "includesElement__electronegativity_pauling": [3.44, 1.54, 1.1], "includesElement__electronegativity_sanderson": [0.9416494, 0.4055462, 0.3946505], "includesElement__en_ghosh": [0.304575, 0.1233637, 0.163142], "includesElement__en_pauling": [3.44, 1.54, 1.1], "includesElement__glawe_number": [97, 51, 32], "includesElement__group_id": [16, 4, 3], "includesElement__heat_of_formation": [249.229, 473.0, 431.0], "includesElement__is_radioactive": [false], "includesElement__lattice_constant": [6.83, 2.95, 3.75], "includesElement__mendeleev_number": [99, 43, 13], "includesElement__molar_heat_capacity": [29.378, 25.06, 27.11], "includesElement__period": [2, 4, 6], "includesElement__pettifor_number": [101, 51, 33], "includesElement__specific_heat_capacity": [0.918, 0.523, 0.195], "includesElement__vdw_radius": [152.0, 211.0, 243.0], "includesElement__vdw_radius_alvarez": [150.0, 246.0, 298.0], "includesElement__vdw_radius_mm3": [182.0, 239.0, 278.0], "includesElement__vdw_radius_uff": [350.0, 317.5, 352.2], "includesElement__abundance_sea": [857000.0, 0.001, 3.4e-06], "includesElement__c6_gb": [16.7, 1200.0, 3730.0], "includesElement__covalent_radius_bragg": [65.0, 140.0], "includesElement__electronegativity_allen": [21.36, 8.17], "includesElement__en_allen": [21.36, 8.17], "includesElement__thermal_conductivity": [0.027, 21.9, 13.4], "includesElement__vdw_radius_batsanov": [155.0, 215.0, 250.0], "includesElement__c6": [15.6, 1044.0], "includesElement__vdw_radius_dreiding": [340.46], "includesElement__gas_basicity": [459.6, 853.7, 991.9], "includesElement__proton_affinity": [485.2, 876.0, 1013.0], "includesElement__vdw_radius_bondi": [152.0], "includesElement__vdw_radius_rt": [158.0], "includesElement__evaporation_heat": [422.6, 402.0], "includesElement__fusion_heat": [18.8, 8.5], "includesElement__atomic_weight_uncertainty": [0.001, 7e-05], "includesElement__metallic_radius": [132.0, 169.0], "includesElement__metallic_radius_c12": [147.0, 187.0], "formula": ["La4O14Ti4"], "spacegroup": ["227"], "thermalConductivity": [5.5638], "icsd": ["164027"], "band_gap": [2.7466], "density": [5.592532], "density_atomic": [13.1061], "deprecated": [false], "efermi": [4.878495], "energy_above_hull": [0.05036334], "energy_per_atom": [-9.215348], "formation_energy_per_atom": [-3.730908], "is_gap_direct": [true], "is_magnetic": [false], "is_metal": [false], "is_stable": [false], "nelements": [3], "nsites": [22], "num_magnetic_sites": [0], "num_unique_magnetic_sites": [0], "theoretical": [true], "total_magnetization": [0.000951], "total_magnetization_normalized_formula_units": [0.0004755], "total_magnetization_normalized_vol": [3.298255e-06], "uncorrected_energy_per_atom": [-8.778167], "volume": [288.3343], "cbm": [7.5951], "vbm": [4.8485]}