{"includesElement": ["", "P", "Ba", "Ru"], "includesElement___series_id": [1, 4, 8], "includesElement__abundance_crust": [1050.0, 425.0, 0.001], "includesElement__atomic_number": [15, 56, 44], "includesElement__atomic_radius": [100.0, 215.0, 130.0], "includesElement__atomic_radius_rahm": [223.0, 293.0, 237.0], "includesElement__atomic_volume": [17.0, 39.0, 8.3], "includesElement__atomic_weight": [30.97376, 137.327, 101.07], "includesElement__covalent_radius_cordero": [107.0, 215.0, 146.0], "includesElement__covalent_radius_pyykko": [111.0, 196.0, 125.0], "includesElement__covalent_radius_pyykko_double": [102.0, 161.0, 114.0], "includesElement__covalent_radius_pyykko_triple": [94.0, 149.0, 103.0], "includesElement__density": [1.823, 3.62, 12.1], "includesElement__dipole_polarizability": [25.0, 272.0, 72.0], "includesElement__dipole_polarizability_unc": [1.0, 10.0], "includesElement__discovery_year": [1669, 1808, 1844], "includesElement__electron_affinity": [0.746607, 0.14462, 1.05], "includesElement__electronegativity_allred-rochow": [0.0003895788, 7.418784e-05, 0.000208], "includesElement__electronegativity_cottrell-sutton": [0.2079501, 0.1205853, 0.1612452], "includesElement__electronegativity_ghosh": [0.206931, 0.1586786, 0.1376494], "includesElement__electronegativity_gordy": [0.04324324, 0.01454082, 0.026], "includesElement__electronegativity_mulliken": [5.616646, 2.678142, 4.20525], "includesElement__electronegativity_nagle": [0.5848035, 0.1944556, 0.4807499], "includesElement__electronegativity_pauling": [2.19, 0.89, 2.2], "includesElement__electronegativity_sanderson": [0.4510269, 0.3032951, 0.9579373], "includesElement__en_ghosh": [0.206931, 0.1586786, 0.1376494], "includesElement__en_pauling": [2.19, 0.89, 2.2], "includesElement__evaporation_heat": [49.8, 142.0], "includesElement__fusion_heat": [2.51, 7.66, 25.5], "includesElement__glawe_number": [89, 14, 61], "includesElement__group_id": [15, 2, 8], "includesElement__heat_of_formation": [316.5, 179.1, 650.6], "includesElement__is_radioactive": [false], "includesElement__lattice_constant": [7.17, 5.02, 2.7], "includesElement__mendeleev_number": [94, 9, 60], "includesElement__molar_heat_capacity": [23.824, 28.07, 24.06], "includesElement__period": [3, 6, 5], "includesElement__pettifor_number": [90, 14, 63], "includesElement__specific_heat_capacity": [0.769, 0.204, 0.238], "includesElement__vdw_radius": [180.0, 268.0, 213.0], "includesElement__vdw_radius_alvarez": [190.0, 303.0, 246.0], "includesElement__vdw_radius_mm3": [222.0, 307.0, 234.0], "includesElement__vdw_radius_uff": [414.7, 370.3, 296.3], "includesElement__abundance_sea": [0.06, 0.013, 7e-07], "includesElement__atomic_weight_uncertainty": [5e-09, 0.007, 0.02], "includesElement__c6_gb": [187.0, 5540.0, 809.0], "includesElement__electronegativity_allen": [13.33, 5.211, 9.1], "includesElement__en_allen": [13.33, 5.211, 9.1], "includesElement__metallic_radius": [110.0, 198.0, 125.0], "includesElement__metallic_radius_c12": [128.0, 222.0, 134.0], "includesElement__vdw_radius_batsanov": [195.0, 270.0, 205.0], "includesElement__c6": [185.0], "includesElement__is_monoisotopic": [true], "includesElement__vdw_radius_dreiding": [415.0], "includesElement__gas_basicity": [604.8, 751.4], "includesElement__proton_affinity": [626.8, 774.0], "includesElement__vdw_radius_bondi": [180.0], "includesElement__covalent_radius_bragg": [210.0], "includesElement__vdw_radius_truhlar": [268.0], "includesElement__thermal_conductivity": [117.0], "formula": ["Ba1P2Ru2"], "spacegroup": ["139"], "thermalConductivity": [9.50025], "icsd": ["602127"], "band_gap": [0.0], "density": [6.646252], "density_atomic": [20.05836], "deprecated": [false], "efermi": [5.968472], "energy_above_hull": [0.0], "energy_per_atom": [-7.200781], "formation_energy_per_atom": [-0.941036], "homogeneous_poisson": [0.266], "is_gap_direct": [false], "is_magnetic": [false], "is_metal": [true], "is_stable": [true], "nelements": [3], "nsites": [5], "num_magnetic_sites": [0], "num_unique_magnetic_sites": [0], "theoretical": [false], "total_magnetization": [0.0], "total_magnetization_normalized_formula_units": [0.0], "total_magnetization_normalized_vol": [0.0], "uncorrected_energy_per_atom": [-20.10949], "universal_anisotropy": [1.545], "volume": [100.2918], "equilibrium_reaction_energy_per_atom": [-0.2912331]}