{"includesElement": ["", "Ba", "O", "Pr"], "includesElement___series_id": [4, 1, 9], "includesElement__abundance_crust": [425.0, 461000.0, 9.2], "includesElement__atomic_number": [56, 8, 59], "includesElement__atomic_radius": [215.0, 60.0, 185.0], "includesElement__atomic_radius_rahm": [293.0, 171.0, 286.0], "includesElement__atomic_volume": [39.0, 14.0, 20.8], "includesElement__atomic_weight": [137.327, 15.999, 140.9077], "includesElement__covalent_radius_cordero": [215.0, 66.0, 203.0], "includesElement__covalent_radius_pyykko": [196.0, 63.0, 176.0], "includesElement__covalent_radius_pyykko_double": [161.0, 57.0, 138.0], "includesElement__covalent_radius_pyykko_triple": [149.0, 53.0, 128.0], "includesElement__density": [3.62, 0.001308, 6.773], "includesElement__dipole_polarizability": [272.0, 5.3, 216.0], "includesElement__dipole_polarizability_unc": [10.0, 0.2, 20.0], "includesElement__discovery_year": [1808, 1774, 1885], "includesElement__electron_affinity": [0.14462, 1.461113, 0.962], "includesElement__electronegativity_allred-rochow": [7.418784e-05, 0.001146384, 9.200671e-05], "includesElement__electronegativity_cottrell-sutton": [0.1205853, 0.2687419, 0.1272524], "includesElement__electronegativity_ghosh": [0.1586786, 0.304575, 0.17208], "includesElement__electronegativity_gordy": [0.01454082, 0.07222222, 0.01619318], "includesElement__electronegativity_mulliken": [2.678142, 7.539584, 3.2175], "includesElement__electronegativity_nagle": [0.1944556, 1.042218, 0.284996], "includesElement__electronegativity_pauling": [0.89, 3.44, 1.13], "includesElement__electronegativity_sanderson": [0.3032951, 0.9416494, 0.428804], "includesElement__en_ghosh": [0.1586786, 0.304575, 0.17208], "includesElement__en_pauling": [0.89, 3.44, 1.13], "includesElement__evaporation_heat": [142.0, 331.0], "includesElement__fusion_heat": [7.66, 11.3], "includesElement__glawe_number": [14, 97, 30], "includesElement__group_id": [2, 16], "includesElement__heat_of_formation": [179.1, 249.229, 356.9], "includesElement__is_radioactive": [false], "includesElement__lattice_constant": [5.02, 6.83, 3.67], "includesElement__mendeleev_number": [9, 99, 17], "includesElement__molar_heat_capacity": [28.07, 29.378, 27.2], "includesElement__period": [6, 2], "includesElement__pettifor_number": [14, 101, 31], "includesElement__specific_heat_capacity": [0.204, 0.918, 0.193], "includesElement__vdw_radius": [268.0, 152.0, 240.0], "includesElement__vdw_radius_alvarez": [303.0, 150.0, 292.0], "includesElement__vdw_radius_mm3": [307.0, 182.0, 273.0], "includesElement__vdw_radius_uff": [370.3, 350.0, 360.6], "includesElement__abundance_sea": [0.013, 857000.0, 6.4e-07], "includesElement__atomic_weight_uncertainty": [0.007, 2e-05], "includesElement__c6_gb": [5540.0, 16.7, 3760.0], "includesElement__covalent_radius_bragg": [210.0, 65.0], "includesElement__electronegativity_allen": [5.211, 21.36], "includesElement__en_allen": [5.211, 21.36], "includesElement__metallic_radius": [198.0], "includesElement__metallic_radius_c12": [222.0], "includesElement__vdw_radius_batsanov": [270.0, 155.0], "includesElement__vdw_radius_truhlar": [268.0], "includesElement__thermal_conductivity": [0.027, 12.5], "includesElement__c6": [15.6], "includesElement__vdw_radius_dreiding": [340.46], "includesElement__gas_basicity": [459.6], "includesElement__proton_affinity": [485.2], "includesElement__vdw_radius_bondi": [152.0], "includesElement__vdw_radius_rt": [158.0], "includesElement__is_monoisotopic": [true], "formula": ["Ba1O3Pr1"], "spacegroup": ["221"], "thermalConductivity": [7.03495], "icsd": ["163755"], "band_gap": [0.0], "density": [5.60023], "density_atomic": [19.34643], "deprecated": [false], "efermi": [1.49232], "energy_above_hull": [0.1908281], "energy_per_atom": [-7.202809], "formation_energy_per_atom": [-2.888561], "is_gap_direct": [false], "is_magnetic": [true], "is_metal": [true], "is_stable": [false], "nelements": [3], "nsites": [5], "num_magnetic_sites": [3], "num_unique_magnetic_sites": [2], "theoretical": [false], "total_magnetization": [0.9999795], "total_magnetization_normalized_formula_units": [0.9999795], "total_magnetization_normalized_vol": [0.01033761], "uncorrected_energy_per_atom": [-6.790609], "volume": [96.73216]}