{"includesElement": ["", "Sb", "Pt", "Y"], "includesElement___series_id": [5, 8], "includesElement__abundance_crust": [0.2, 0.005, 33.0], "includesElement__atomic_number": [51, 78, 39], "includesElement__atomic_radius": [145.0, 135.0, 180.0], "includesElement__atomic_radius_rahm": [246.0, 230.0, 274.0], "includesElement__atomic_volume": [18.4, 9.1, 19.8], "includesElement__atomic_weight": [121.76, 195.084, 88.90584], "includesElement__covalent_radius_cordero": [139.0, 136.0, 190.0], "includesElement__covalent_radius_pyykko": [140.0, 123.0, 163.0], "includesElement__covalent_radius_pyykko_double": [133.0, 112.0, 130.0], "includesElement__covalent_radius_pyykko_triple": [127.0, 110.0, 124.0], "includesElement__density": [6.68, 21.5, 4.47], "includesElement__dipole_polarizability": [43.0, 48.0, 162.0], "includesElement__dipole_polarizability_unc": [2.0, 4.0, 12.0], "includesElement__electron_affinity": [1.046, 2.128, 0.307], "includesElement__electronegativity_allred-rochow": [0.0003214286, 0.0002346487, 0.0001129135], "includesElement__electronegativity_cottrell-sutton": [0.212132, 0.1698876, 0.1356647], "includesElement__electronegativity_ghosh": [0.1918774, 0.25691, 0.1216986], "includesElement__electronegativity_gordy": [0.045, 0.02886179, 0.01840491], "includesElement__electronegativity_mulliken": [4.827195, 5.543415, 3.26213], "includesElement__electronegativity_nagle": [0.4880907, 0.5928156, 0.2645668], "includesElement__electronegativity_pauling": [2.05, 2.2, 1.22], "includesElement__electronegativity_sanderson": [0.7762722, 1.45101, 0.3923941], "includesElement__en_ghosh": [0.1918774, 0.25691, 0.1216986], "includesElement__en_pauling": [2.05, 2.2, 1.22], "includesElement__evaporation_heat": [195.2, 470.0, 367.0], "includesElement__fusion_heat": [20.08, 21.76, 11.5], "includesElement__glawe_number": [91, 64, 21], "includesElement__group_id": [15, 10, 3], "includesElement__heat_of_formation": [264.4, 565.7, 424.7], "includesElement__is_radioactive": [false], "includesElement__lattice_constant": [4.51, 3.92, 3.65], "includesElement__mendeleev_number": [96, 69, 12], "includesElement__molar_heat_capacity": [25.23, 25.86, 26.53], "includesElement__period": [5, 6], "includesElement__pettifor_number": [88, 68, 19], "includesElement__specific_heat_capacity": [0.207, 0.133, 0.298], "includesElement__vdw_radius": [206.0, 213.0, 232.0], "includesElement__vdw_radius_alvarez": [247.0, 229.0, 275.0], "includesElement__vdw_radius_mm3": [252.0, 239.0, 271.0], "includesElement__vdw_radius_uff": [442.0, 275.4, 334.5], "includesElement__abundance_sea": [0.00024, 1.3e-05], "includesElement__atomic_weight_uncertainty": [0.001, 0.009, 2e-05], "includesElement__c6_gb": [504.0, 470.0, 2600.0], "includesElement__covalent_radius_bragg": [140.0], "includesElement__electronegativity_allen": [11.74, 10.16, 6.631], "includesElement__en_allen": [11.74, 10.16, 6.631], "includesElement__metallic_radius": [139.0, 130.0, 162.0], "includesElement__metallic_radius_c12": [166.0, 139.0, 180.0], "includesElement__thermal_conductivity": [24.43, 71.6], "includesElement__vdw_radius_batsanov": [220.0, 205.0, 240.0], "includesElement__c6": [492.0], "includesElement__vdw_radius_dreiding": [435.0], "includesElement__vdw_radius_truhlar": [206.0], "includesElement__discovery_year": [1735, 1789], "includesElement__is_monoisotopic": [true], "includesElement__gas_basicity": [945.9], "includesElement__proton_affinity": [967.0], "formula": ["Pt1Sb1Y1", "YSbPt"], "mp_id": ["4964"], "spacegroup": ["216"], "thermalConductivity": [6.17021, 3.23], "icsd": ["44970"], "band_gap": [0.1098], "density": [9.442611], "density_atomic": [23.78451], "deprecated": [false], "efermi": [6.300301], "energy_above_hull": [0.0], "energy_per_atom": [-33.86733], "formation_energy_per_atom": [-1.364784], "homogeneous_poisson": [0.289], "is_gap_direct": [true], "is_magnetic": [false], "is_metal": [false], "is_stable": [true], "nelements": [3], "nsites": [3], "num_magnetic_sites": [0], "num_unique_magnetic_sites": [0], "theoretical": [false], "total_magnetization": [0.0], "total_magnetization_normalized_formula_units": [0.0], "total_magnetization_normalized_vol": [0.0], "uncorrected_energy_per_atom": [-33.86733], "universal_anisotropy": [0.003], "volume": [71.35352], "cbm": [6.3483], "e_electronic": [668.7374], "e_ionic": [0.9355312], "e_total": [669.673], "equilibrium_reaction_energy_per_atom": [-0.2209462], "n": [25.85996], "vbm": [6.2385], "e_ij_max": [1.701997]}