{"includesElement": ["", "Ba", "O", "Fe"], "includesElement___series_id": [4, 1, 8], "includesElement__abundance_crust": [425.0, 461000.0, 56300.0], "includesElement__atomic_number": [56, 8, 26], "includesElement__atomic_radius": [215.0, 60.0, 140.0], "includesElement__atomic_radius_rahm": [293.0, 171.0, 237.0], "includesElement__atomic_volume": [39.0, 14.0, 7.1], "includesElement__atomic_weight": [137.327, 15.999, 55.845], "includesElement__covalent_radius_cordero": [215.0, 66.0, 142.0], "includesElement__covalent_radius_pyykko": [196.0, 63.0, 116.0], "includesElement__covalent_radius_pyykko_double": [161.0, 57.0, 109.0], "includesElement__covalent_radius_pyykko_triple": [149.0, 53.0, 102.0], "includesElement__density": [3.62, 0.001308, 7.87], "includesElement__dipole_polarizability": [272.0, 5.3, 62.0], "includesElement__dipole_polarizability_unc": [10.0, 0.2, 4.0], "includesElement__discovery_year": [1808, 1774], "includesElement__electron_affinity": [0.14462, 1.461113, 0.151], "includesElement__electronegativity_allred-rochow": [7.418784e-05, 0.001146384, 0.0002786861], "includesElement__electronegativity_cottrell-sutton": [0.1205853, 0.2687419, 0.1797987], "includesElement__electronegativity_ghosh": [0.1586786, 0.304575, 0.1392532], "includesElement__electronegativity_gordy": [0.01454082, 0.07222222, 0.03232759], "includesElement__electronegativity_mulliken": [2.678142, 7.539584, 4.026734], "includesElement__electronegativity_nagle": [0.1944556, 1.042218, 0.5053195], "includesElement__electronegativity_pauling": [0.89, 3.44, 1.83], "includesElement__electronegativity_sanderson": [0.3032951, 0.9416494, 0.748727], "includesElement__en_ghosh": [0.1586786, 0.304575, 0.1392532], "includesElement__en_pauling": [0.89, 3.44, 1.83], "includesElement__evaporation_heat": [142.0, 340.0], "includesElement__fusion_heat": [7.66, 13.8], "includesElement__glawe_number": [14, 97, 71], "includesElement__group_id": [2, 16, 8], "includesElement__heat_of_formation": [179.1, 249.229, 415.5], "includesElement__is_radioactive": [false], "includesElement__lattice_constant": [5.02, 6.83, 2.87], "includesElement__mendeleev_number": [9, 99, 59], "includesElement__molar_heat_capacity": [28.07, 29.378, 25.1], "includesElement__period": [6, 2, 4], "includesElement__pettifor_number": [14, 101, 61], "includesElement__specific_heat_capacity": [0.204, 0.918, 0.449], "includesElement__vdw_radius": [268.0, 152.0, 204.0], "includesElement__vdw_radius_alvarez": [303.0, 150.0, 244.0], "includesElement__vdw_radius_mm3": [307.0, 182.0, 223.0], "includesElement__vdw_radius_uff": [370.3, 350.0, 291.2], "includesElement__abundance_sea": [0.013, 857000.0, 0.002], "includesElement__atomic_weight_uncertainty": [0.007, 0.002], "includesElement__c6_gb": [5540.0, 16.7, 548.0], "includesElement__covalent_radius_bragg": [210.0, 65.0, 140.0], "includesElement__electronegativity_allen": [5.211, 21.36, 10.64], "includesElement__en_allen": [5.211, 21.36, 10.64], "includesElement__metallic_radius": [198.0, 117.0], "includesElement__metallic_radius_c12": [222.0, 126.0], "includesElement__vdw_radius_batsanov": [270.0, 155.0, 205.0], "includesElement__vdw_radius_truhlar": [268.0], "includesElement__thermal_conductivity": [0.027, 80.4], "includesElement__c6": [15.6, 482.0], "includesElement__vdw_radius_dreiding": [340.46], "includesElement__gas_basicity": [459.6, 731.1], "includesElement__proton_affinity": [485.2, 754.0], "includesElement__vdw_radius_bondi": [152.0], "includesElement__vdw_radius_rt": [158.0], "formula": ["Ba1Fe1O3"], "spacegroup": ["221"], "thermalConductivity": [7.22743], "icsd": ["262131"], "band_gap": [0.0], "density": [6.4903], "density_atomic": [12.34065], "deprecated": [false], "efermi": [2.504448], "energy_above_hull": [0.04802462], "energy_per_atom": [-7.148832], "formation_energy_per_atom": [-2.099675], "is_gap_direct": [false], "is_magnetic": [true], "is_metal": [true], "is_stable": [false], "nelements": [3], "nsites": [5], "num_magnetic_sites": [1], "num_unique_magnetic_sites": [1], "theoretical": [false], "total_magnetization": [3.987505], "total_magnetization_normalized_formula_units": [3.987505], "total_magnetization_normalized_vol": [0.06462392], "uncorrected_energy_per_atom": [-13.92656], "volume": [61.70324]}