{"includesElement": ["", "Li", "Pb"], "includesElement___series_id": [3, 7], "includesElement__abundance_crust": [20.0, 14.0], "includesElement__atomic_number": [3, 82], "includesElement__atomic_radius": [145.0, 180.0], "includesElement__atomic_radius_rahm": [220.0, 249.0], "includesElement__atomic_volume": [13.1, 18.3], "includesElement__atomic_weight": [6.94, 207.2], "includesElement__covalent_radius_cordero": [128.0, 146.0], "includesElement__covalent_radius_pyykko": [133.0, 144.0], "includesElement__covalent_radius_pyykko_double": [124.0, 135.0], "includesElement__density": [0.534, 11.3], "includesElement__dipole_polarizability": [164.1125, 47.0], "includesElement__dipole_polarizability_unc": [0.0005, 3.0], "includesElement__discovery_year": [1817], "includesElement__electron_affinity": [0.618049, 0.3567432], "includesElement__electronegativity_allred-rochow": [7.3492e-05, 0.000272473], "includesElement__electronegativity_cottrell-sutton": [0.09886575, 0.1980811], "includesElement__electronegativity_ghosh": [0.105093, 0.177911], "includesElement__electronegativity_gordy": [0.009774436, 0.03923611], "includesElement__electronegativity_mulliken": [3.004882, 3.886711], "includesElement__electronegativity_nagle": [0.1826499, 0.4398663], "includesElement__electronegativity_pauling": [0.98, 1.8], "includesElement__electronegativity_sanderson": [0.04886793, 0.9313226], "includesElement__en_ghosh": [0.105093, 0.177911], "includesElement__en_pauling": [0.98, 1.8], "includesElement__evaporation_heat": [148.0, 177.8], "includesElement__fusion_heat": [2.89, 4.77], "includesElement__glawe_number": [12, 82], "includesElement__group_id": [1, 14], "includesElement__heat_of_formation": [159.3, 195.2], "includesElement__is_radioactive": [false], "includesElement__lattice_constant": [3.49, 4.95], "includesElement__mendeleev_number": [1, 91], "includesElement__molar_heat_capacity": [24.86, 26.84], "includesElement__period": [2, 6], "includesElement__pettifor_number": [12, 82], "includesElement__specific_heat_capacity": [3.582, 0.13], "includesElement__vdw_radius": [182.0, 202.0], "includesElement__vdw_radius_alvarez": [212.0, 260.0], "includesElement__vdw_radius_mm3": [255.0, 274.0], "includesElement__vdw_radius_uff": [245.1, 429.7], "includesElement__abundance_sea": [0.18, 3e-05], "includesElement__c6_gb": [1410.0, 534.0], "includesElement__covalent_radius_bragg": [150.0], "includesElement__electronegativity_allen": [5.392, 10.97], "includesElement__en_allen": [5.392, 10.97], "includesElement__metallic_radius": [123.0, 150.0], "includesElement__metallic_radius_c12": [155.0, 170.0], "includesElement__thermal_conductivity": [84.8, 35.3], "includesElement__vdw_radius_batsanov": [220.0, 230.0], "includesElement__c6": [1392.0], "includesElement__vdw_radius_bondi": [181.0, 202.0], "includesElement__covalent_radius_pyykko_triple": [137.0], "includesElement__atomic_weight_uncertainty": [0.1], "formula": ["Li40Pb12"], "spacegroup": ["215"], "thermalConductivity": [0.411493], "icsd": ["30221"], "band_gap": [0.0], "density": [4.441533], "density_atomic": [19.87272], "deprecated": [false], "efermi": [2.566936], "energy_above_hull": [0.09865894], "energy_per_atom": [-2.546398], "formation_energy_per_atom": [-0.2212315], "is_gap_direct": [false], "is_magnetic": [false], "is_metal": [true], "is_stable": [false], "nelements": [2], "nsites": [52], "num_magnetic_sites": [0], "num_unique_magnetic_sites": [0], "theoretical": [false], "total_magnetization": [0.0036962], "total_magnetization_normalized_formula_units": [0.00092405], "total_magnetization_normalized_vol": [3.576802e-06], "uncorrected_energy_per_atom": [-2.546398], "volume": [1033.381]}