{"includesElement": ["", "Ni", "Al", "B"], "includesElement___series_id": [8, 7, 5], "includesElement__abundance_crust": [84.0, 82300.0, 10.0], "includesElement__atomic_number": [28, 13, 5], "includesElement__atomic_radius": [135.0, 125.0, 85.0], "includesElement__atomic_radius_rahm": [229.0, 239.0, 205.0], "includesElement__atomic_volume": [6.6, 10.0, 4.6], "includesElement__atomic_weight": [58.6934, 26.98154, 10.81], "includesElement__covalent_radius_cordero": [124.0, 121.0, 84.0], "includesElement__covalent_radius_pyykko": [110.0, 126.0, 85.0], "includesElement__covalent_radius_pyykko_double": [101.0, 113.0, 78.0], "includesElement__covalent_radius_pyykko_triple": [101.0, 111.0, 73.0], "includesElement__density": [8.9, 2.7, 2.34], "includesElement__dipole_polarizability": [49.0, 57.8, 20.5], "includesElement__dipole_polarizability_unc": [3.0, 1.0, 0.1], "includesElement__discovery_year": [1751, 1825, 1808], "includesElement__electron_affinity": [1.156, 0.43283, 0.279723], "includesElement__electronegativity_allred-rochow": [0.0003347107, 0.0002204586, 0.0003598616], "includesElement__electronegativity_cottrell-sutton": [0.1918806, 0.1666667, 0.1748949], "includesElement__electronegativity_ghosh": [0.1472068, 0.150078, 0.184886], "includesElement__electronegativity_gordy": [0.03681818, 0.02777778, 0.03058824], "includesElement__electronegativity_mulliken": [4.397939, 3.209299, 4.288871], "includesElement__electronegativity_nagle": [0.588755, 0.3730192, 0.5269739], "includesElement__electronegativity_pauling": [1.91, 1.61, 2.04], "includesElement__electronegativity_sanderson": [0.937704, 0.2360927, 0.2546274], "includesElement__en_ghosh": [0.1472068, 0.150078, 0.184886], "includesElement__en_pauling": [1.91, 1.61, 2.04], "includesElement__evaporation_heat": [378.6, 284.1, 504.5], "includesElement__fusion_heat": [17.61, 10.75, 23.6], "includesElement__glawe_number": [69, 78, 86], "includesElement__group_id": [10, 13], "includesElement__heat_of_formation": [430.1, 330.9, 565.0], "includesElement__is_radioactive": [false], "includesElement__lattice_constant": [3.52, 4.05, 8.73], "includesElement__mendeleev_number": [67, 82, 81], "includesElement__molar_heat_capacity": [26.07, 24.2, 11.087], "includesElement__period": [4, 3, 2], "includesElement__pettifor_number": [67, 80, 86], "includesElement__specific_heat_capacity": [0.444, 0.897, 1.026], "includesElement__vdw_radius": [197.0, 184.0, 192.0], "includesElement__vdw_radius_alvarez": [240.0, 225.0, 191.0], "includesElement__vdw_radius_mm3": [222.0, 236.0, 215.0], "includesElement__vdw_radius_uff": [283.4, 449.9, 408.3], "includesElement__abundance_sea": [0.00056, 0.002, 4.44], "includesElement__atomic_weight_uncertainty": [0.0004, 7e-07], "includesElement__c6_gb": [393.0, 520.0, 99.2], "includesElement__covalent_radius_bragg": [135.0], "includesElement__electronegativity_allen": [11.13, 9.539, 12.13], "includesElement__en_allen": [11.13, 9.539, 12.13], "includesElement__metallic_radius": [115.0, 125.0, 80.0], "includesElement__metallic_radius_c12": [124.0, 143.0, 98.0], "includesElement__thermal_conductivity": [90.9, 237.0, 27.4], "includesElement__vdw_radius_batsanov": [200.0, 210.0, 180.0], "includesElement__c6": [373.0, 528.0, 99.5], "includesElement__gas_basicity": [714.1], "includesElement__proton_affinity": [737.0], "includesElement__is_monoisotopic": [true], "includesElement__vdw_radius_dreiding": [439.0, 402.0], "includesElement__vdw_radius_truhlar": [184.0, 192.0], "formula": ["Al3B6Ni20"], "spacegroup": ["225"], "thermalConductivity": [1.45764], "icsd": ["408417"], "band_gap": [0.0], "density": [7.838221], "density_atomic": [9.640549], "deprecated": [false], "efermi": [8.498564], "energy_above_hull": [0.0], "energy_per_atom": [-6.158603], "formation_energy_per_atom": [-0.4028856], "is_gap_direct": [false], "is_magnetic": [false], "is_metal": [true], "is_stable": [true], "nelements": [3], "nsites": [29], "num_magnetic_sites": [0], "num_unique_magnetic_sites": [0], "theoretical": [false], "total_magnetization": [1e-07], "total_magnetization_normalized_formula_units": [1e-07], "total_magnetization_normalized_vol": [3.576846e-10], "uncorrected_energy_per_atom": [-10.87256], "volume": [279.5759], "equilibrium_reaction_energy_per_atom": [-0.03054378]}