{"includesElement": ["", "Ba", "O", "Nb"], "includesElement___series_id": [4, 1, 8], "includesElement__abundance_crust": [425.0, 461000.0, 20.0], "includesElement__atomic_number": [56, 8, 41], "includesElement__atomic_radius": [215.0, 60.0, 145.0], "includesElement__atomic_radius_rahm": [293.0, 171.0, 251.0], "includesElement__atomic_volume": [39.0, 14.0, 10.8], "includesElement__atomic_weight": [137.327, 15.999, 92.90637], "includesElement__covalent_radius_cordero": [215.0, 66.0, 164.0], "includesElement__covalent_radius_pyykko": [196.0, 63.0, 147.0], "includesElement__covalent_radius_pyykko_double": [161.0, 57.0, 125.0], "includesElement__covalent_radius_pyykko_triple": [149.0, 53.0, 116.0], "includesElement__density": [3.62, 0.001308, 8.57], "includesElement__dipole_polarizability": [272.0, 5.3, 98.0], "includesElement__dipole_polarizability_unc": [10.0, 0.2, 8.0], "includesElement__discovery_year": [1808, 1774, 1801], "includesElement__electron_affinity": [0.14462, 1.461113, 0.917406], "includesElement__electronegativity_allred-rochow": [7.418784e-05, 0.001146384, 0.0001295756], "includesElement__electronegativity_cottrell-sutton": [0.1205853, 0.2687419, 0.1380131], "includesElement__electronegativity_ghosh": [0.1586786, 0.304575, 0.1280782], "includesElement__electronegativity_gordy": [0.01454082, 0.07222222, 0.01904762], "includesElement__electronegativity_mulliken": [2.678142, 7.539584, 3.838128], "includesElement__electronegativity_nagle": [0.1944556, 1.042218, 0.3708924], "includesElement__electronegativity_pauling": [0.89, 3.44, 1.6], "includesElement__electronegativity_sanderson": [0.3032951, 0.9416494, 0.5561695], "includesElement__en_ghosh": [0.1586786, 0.304575, 0.1280782], "includesElement__en_pauling": [0.89, 3.44, 1.6], "includesElement__evaporation_heat": [142.0, 680.0], "includesElement__fusion_heat": [7.66, 26.8], "includesElement__glawe_number": [14, 97, 53], "includesElement__group_id": [2, 16, 5], "includesElement__heat_of_formation": [179.1, 249.229, 733.0], "includesElement__is_radioactive": [false], "includesElement__lattice_constant": [5.02, 6.83, 3.3], "includesElement__mendeleev_number": [9, 99, 48], "includesElement__molar_heat_capacity": [28.07, 29.378, 24.6], "includesElement__period": [6, 2, 5], "includesElement__pettifor_number": [14, 101, 52], "includesElement__specific_heat_capacity": [0.204, 0.918, 0.265], "includesElement__vdw_radius": [268.0, 152.0, 218.0], "includesElement__vdw_radius_alvarez": [303.0, 150.0, 256.0], "includesElement__vdw_radius_mm3": [307.0, 182.0, 243.0], "includesElement__vdw_radius_uff": [370.3, 350.0, 316.5], "includesElement__abundance_sea": [0.013, 857000.0, 1e-05], "includesElement__atomic_weight_uncertainty": [0.007, 2e-05], "includesElement__c6_gb": [5540.0, 16.7, 1140.0], "includesElement__covalent_radius_bragg": [210.0, 65.0], "includesElement__electronegativity_allen": [5.211, 21.36, 8.34], "includesElement__en_allen": [5.211, 21.36, 8.34], "includesElement__metallic_radius": [198.0, 134.0], "includesElement__metallic_radius_c12": [222.0, 146.0], "includesElement__vdw_radius_batsanov": [270.0, 155.0, 215.0], "includesElement__vdw_radius_truhlar": [268.0], "includesElement__thermal_conductivity": [0.027, 53.7], "includesElement__c6": [15.6], "includesElement__vdw_radius_dreiding": [340.46], "includesElement__gas_basicity": [459.6], "includesElement__proton_affinity": [485.2], "includesElement__vdw_radius_bondi": [152.0], "includesElement__vdw_radius_rt": [158.0], "includesElement__is_monoisotopic": [true], "formula": ["Ba1Nb4O6"], "spacegroup": ["123"], "thermalConductivity": [12.4976], "icsd": ["42006"], "band_gap": [0.0], "density": [6.80221], "density_atomic": [13.42533], "deprecated": [false], "efermi": [5.412571], "energy_above_hull": [0.0], "energy_per_atom": [-9.274726], "formation_energy_per_atom": [-2.725837], "homogeneous_poisson": [0.254], "is_gap_direct": [false], "is_magnetic": [false], "is_metal": [true], "is_stable": [true], "nelements": [3], "nsites": [11], "num_magnetic_sites": [0], "num_unique_magnetic_sites": [0], "theoretical": [false], "total_magnetization": [3e-07], "total_magnetization_normalized_formula_units": [3e-07], "total_magnetization_normalized_vol": [2.031438e-09], "uncorrected_energy_per_atom": [-17.2251], "universal_anisotropy": [0.323], "volume": [147.6787], "equilibrium_reaction_energy_per_atom": [-0.002809446]}