{"includesElement": ["", "Al", "Tb"], "includesElement___series_id": [7, 9], "includesElement__abundance_crust": [82300.0, 1.2], "includesElement__atomic_number": [13, 65], "includesElement__atomic_radius": [125.0, 175.0], "includesElement__atomic_radius_rahm": [239.0, 276.0], "includesElement__atomic_volume": [10.0, 19.2], "includesElement__atomic_weight": [26.98154, 158.9254], "includesElement__covalent_radius_cordero": [121.0, 194.0], "includesElement__covalent_radius_pyykko": [126.0, 168.0], "includesElement__covalent_radius_pyykko_double": [113.0, 135.0], "includesElement__covalent_radius_pyykko_triple": [111.0], "includesElement__density": [2.7, 8.23], "includesElement__dipole_polarizability": [57.8, 170.0], "includesElement__dipole_polarizability_unc": [1.0, 20.0], "includesElement__discovery_year": [1825, 1843], "includesElement__electron_affinity": [0.43283, 1.165], "includesElement__electronegativity_allred-rochow": [0.0002204586, 0.0001009779], "includesElement__electronegativity_cottrell-sutton": [0.1666667, 0.130247], "includesElement__electronegativity_ghosh": [0.150078, 0.198863], "includesElement__electronegativity_gordy": [0.02777778, 0.01696429], "includesElement__electronegativity_mulliken": [3.209299, 3.5144], "includesElement__electronegativity_nagle": [0.3730192, 0.4014652], "includesElement__electronegativity_pauling": [1.61], "includesElement__electronegativity_sanderson": [0.2360927, 0.5163695], "includesElement__en_ghosh": [0.150078, 0.198863], "includesElement__en_pauling": [1.61], "includesElement__evaporation_heat": [284.1, 389.0], "includesElement__fusion_heat": [10.75], "includesElement__glawe_number": [78, 25], "includesElement__group_id": [13], "includesElement__heat_of_formation": [330.9, 388.7], "includesElement__is_radioactive": [false], "includesElement__lattice_constant": [4.05, 3.6], "includesElement__mendeleev_number": [82, 29], "includesElement__molar_heat_capacity": [24.2, 28.91], "includesElement__period": [3, 6], "includesElement__pettifor_number": [80, 26], "includesElement__specific_heat_capacity": [0.897, 0.182], "includesElement__vdw_radius": [184.0, 233.0], "includesElement__vdw_radius_alvarez": [225.0, 279.0], "includesElement__vdw_radius_mm3": [236.0, 270.0], "includesElement__vdw_radius_uff": [449.9, 345.1], "includesElement__abundance_sea": [0.002, 1.4e-07], "includesElement__atomic_weight_uncertainty": [7e-07, 2e-05], "includesElement__c6_gb": [520.0, 2590.0], "includesElement__covalent_radius_bragg": [135.0], "includesElement__electronegativity_allen": [9.539], "includesElement__en_allen": [9.539], "includesElement__metallic_radius": [125.0], "includesElement__metallic_radius_c12": [143.0], "includesElement__thermal_conductivity": [237.0, 11.1], "includesElement__vdw_radius_batsanov": [210.0], "includesElement__c6": [528.0], "includesElement__is_monoisotopic": [true], "includesElement__vdw_radius_dreiding": [439.0], "includesElement__vdw_radius_truhlar": [184.0], "formula": ["Al1Tb3"], "spacegroup": ["221"], "thermalConductivity": [6.14948], "icsd": ["58173"], "band_gap": [0.0], "density": [7.751703], "density_atomic": [26.97824], "deprecated": [false], "efermi": [3.795864], "energy_above_hull": [0.0285614], "energy_per_atom": [-25.33182], "formation_energy_per_atom": [-0.2289713], "is_gap_direct": [false], "is_magnetic": [true], "is_metal": [true], "is_stable": [false], "nelements": [2], "nsites": [4], "num_magnetic_sites": [3], "num_unique_magnetic_sites": [1], "theoretical": [false], "total_magnetization": [0.6220017], "total_magnetization_normalized_formula_units": [0.6220017], "total_magnetization_normalized_vol": [0.005763921], "uncorrected_energy_per_atom": [-25.33182], "volume": [107.913]}