{"includesElement": ["", "Li", "Bi", "Sr"], "includesElement___series_id": [3, 7, 4], "includesElement__abundance_crust": [20.0, 0.0085, 370.0], "includesElement__atomic_number": [3, 83, 38], "includesElement__atomic_radius": [145.0, 160.0, 200.0], "includesElement__atomic_radius_rahm": [220.0, 250.0, 279.0], "includesElement__atomic_volume": [13.1, 21.3, 33.7], "includesElement__atomic_weight": [6.94, 208.9804, 87.62], "includesElement__covalent_radius_cordero": [128.0, 148.0, 195.0], "includesElement__covalent_radius_pyykko": [133.0, 151.0, 185.0], "includesElement__covalent_radius_pyykko_double": [124.0, 141.0, 157.0], "includesElement__density": [0.534, 9.79, 2.64], "includesElement__dipole_polarizability": [164.1125, 48.0, 197.2], "includesElement__dipole_polarizability_unc": [0.0005, 4.0, 0.2], "includesElement__discovery_year": [1817, 1790], "includesElement__electron_affinity": [0.618049, 0.942362, 0.048], "includesElement__electronegativity_allred-rochow": [7.3492e-05, 0.0002763037, 8.327246e-05], "includesElement__electronegativity_cottrell-sutton": [0.09886575, 0.2042593, 0.1241185], "includesElement__electronegativity_ghosh": [0.105093, 0.182377, 0.1185082], "includesElement__electronegativity_gordy": [0.009774436, 0.04172185, 0.01540541], "includesElement__electronegativity_mulliken": [3.004882, 4.113939, 2.871434], "includesElement__electronegativity_nagle": [0.1826499, 0.470518, 0.2164584], "includesElement__electronegativity_pauling": [0.98, 1.9, 0.95], "includesElement__electronegativity_sanderson": [0.04886793, 0.8136501, 0.2631786], "includesElement__en_ghosh": [0.105093, 0.182377, 0.1185082], "includesElement__en_pauling": [0.98, 1.9, 0.95], "includesElement__evaporation_heat": [148.0, 172.0, 144.0], "includesElement__fusion_heat": [2.89, 11.0, 9.2], "includesElement__glawe_number": [12, 92, 15], "includesElement__group_id": [1, 15, 2], "includesElement__heat_of_formation": [159.3, 209.6, 164.0], "includesElement__is_radioactive": [false], "includesElement__lattice_constant": [3.49, 4.75, 6.08], "includesElement__mendeleev_number": [1, 97, 8], "includesElement__molar_heat_capacity": [24.86, 25.52, 26.79], "includesElement__period": [2, 6, 5], "includesElement__pettifor_number": [12, 87, 15], "includesElement__specific_heat_capacity": [3.582, 0.122, 0.306], "includesElement__vdw_radius": [182.0, 207.0, 249.0], "includesElement__vdw_radius_alvarez": [212.0, 254.0, 284.0], "includesElement__vdw_radius_mm3": [255.0, 266.0, 300.0], "includesElement__vdw_radius_uff": [245.1, 437.0, 364.1], "includesElement__abundance_sea": [0.18, 2e-05, 7.9], "includesElement__c6_gb": [1410.0, 513.0, 3230.0], "includesElement__covalent_radius_bragg": [150.0, 148.0, 195.0], "includesElement__electronegativity_allen": [5.392, 11.9, 5.695], "includesElement__en_allen": [5.392, 11.9, 5.695], "includesElement__metallic_radius": [123.0, 151.0, 191.0], "includesElement__metallic_radius_c12": [155.0, 178.0, 215.0], "includesElement__thermal_conductivity": [84.8, 7.9], "includesElement__vdw_radius_batsanov": [220.0, 230.0, 255.0], "includesElement__c6": [1392.0, 3175.0], "includesElement__vdw_radius_bondi": [181.0], "includesElement__covalent_radius_pyykko_triple": [135.0, 139.0], "includesElement__atomic_weight_uncertainty": [1e-05, 0.01], "includesElement__is_monoisotopic": [true], "includesElement__vdw_radius_truhlar": [207.0, 249.0], "formula": ["Bi4Li4Sr4"], "spacegroup": ["62"], "thermalConductivity": [1.56568], "icsd": ["58800"], "band_gap": [0.5558], "density": [5.760901], "density_atomic": [29.16455], "deprecated": [false], "efermi": [3.400673], "energy_above_hull": [0.0], "energy_per_atom": [-3.323283], "formation_energy_per_atom": [-0.8426694], "is_gap_direct": [false], "is_magnetic": [false], "is_metal": [false], "is_stable": [true], "nelements": [3], "nsites": [12], "num_magnetic_sites": [0], "num_unique_magnetic_sites": [0], "theoretical": [false], "total_magnetization": [0.0], "total_magnetization_normalized_formula_units": [0.0], "total_magnetization_normalized_vol": [0.0], "uncorrected_energy_per_atom": [-26.3265], "volume": [349.9746], "cbm": [3.855], "e_electronic": [12.5127], "e_ionic": [9.077381], "e_total": [21.59008], "equilibrium_reaction_energy_per_atom": [-0.1055736], "n": [3.537329], "vbm": [3.2992]}