{"includesElement": ["", "Pt", "Tb"], "includesElement___series_id": [8, 9], "includesElement__abundance_crust": [0.005, 1.2], "includesElement__atomic_number": [78, 65], "includesElement__atomic_radius": [135.0, 175.0], "includesElement__atomic_radius_rahm": [230.0, 276.0], "includesElement__atomic_volume": [9.1, 19.2], "includesElement__atomic_weight": [195.084, 158.9254], "includesElement__covalent_radius_cordero": [136.0, 194.0], "includesElement__covalent_radius_pyykko": [123.0, 168.0], "includesElement__covalent_radius_pyykko_double": [112.0, 135.0], "includesElement__covalent_radius_pyykko_triple": [110.0], "includesElement__density": [21.5, 8.23], "includesElement__dipole_polarizability": [48.0, 170.0], "includesElement__dipole_polarizability_unc": [4.0, 20.0], "includesElement__discovery_year": [1735, 1843], "includesElement__electron_affinity": [2.128, 1.165], "includesElement__electronegativity_allred-rochow": [0.0002346487, 0.0001009779], "includesElement__electronegativity_cottrell-sutton": [0.1698876, 0.130247], "includesElement__electronegativity_ghosh": [0.25691, 0.198863], "includesElement__electronegativity_gordy": [0.02886179, 0.01696429], "includesElement__electronegativity_mulliken": [5.543415, 3.5144], "includesElement__electronegativity_nagle": [0.5928156, 0.4014652], "includesElement__electronegativity_pauling": [2.2], "includesElement__electronegativity_sanderson": [1.45101, 0.5163695], "includesElement__en_ghosh": [0.25691, 0.198863], "includesElement__en_pauling": [2.2], "includesElement__evaporation_heat": [470.0, 389.0], "includesElement__fusion_heat": [21.76], "includesElement__glawe_number": [64, 25], "includesElement__group_id": [10], "includesElement__heat_of_formation": [565.7, 388.7], "includesElement__is_radioactive": [false], "includesElement__lattice_constant": [3.92, 3.6], "includesElement__mendeleev_number": [69, 29], "includesElement__molar_heat_capacity": [25.86, 28.91], "includesElement__period": [6], "includesElement__pettifor_number": [68, 26], "includesElement__specific_heat_capacity": [0.133, 0.182], "includesElement__vdw_radius": [213.0, 233.0], "includesElement__vdw_radius_alvarez": [229.0, 279.0], "includesElement__vdw_radius_mm3": [239.0, 270.0], "includesElement__vdw_radius_uff": [275.4, 345.1], "includesElement__atomic_weight_uncertainty": [0.009, 2e-05], "includesElement__c6_gb": [470.0, 2590.0], "includesElement__electronegativity_allen": [10.16], "includesElement__en_allen": [10.16], "includesElement__metallic_radius": [130.0], "includesElement__metallic_radius_c12": [139.0], "includesElement__thermal_conductivity": [71.6, 11.1], "includesElement__vdw_radius_batsanov": [205.0], "includesElement__abundance_sea": [1.4e-07], "includesElement__is_monoisotopic": [true], "formula": ["Pt4Tb8"], "spacegroup": ["62"], "thermalConductivity": [1.2487], "icsd": ["105806"], "band_gap": [0.0], "density": [11.31337], "density_atomic": [25.09563], "deprecated": [false], "efermi": [4.36894], "energy_above_hull": [0.0], "energy_per_atom": [-39.01997], "formation_energy_per_atom": [-1.039773], "is_gap_direct": [false], "is_magnetic": [false], "is_metal": [true], "is_stable": [true], "nelements": [2], "nsites": [12], "num_magnetic_sites": [0], "num_unique_magnetic_sites": [0], "theoretical": [false], "total_magnetization": [0.0], "total_magnetization_normalized_formula_units": [0.0], "total_magnetization_normalized_vol": [0.0], "uncorrected_energy_per_atom": [-39.01997], "volume": [301.1475], "equilibrium_reaction_energy_per_atom": [-0.04880927]}