{"includesElement": ["", "Tb", "Co", "C"], "includesElement___series_id": [9, 8, 1], "includesElement__abundance_crust": [1.2, 25.0, 200.0], "includesElement__atomic_number": [65, 27, 6], "includesElement__atomic_radius": [175.0, 135.0, 70.0], "includesElement__atomic_radius_rahm": [276.0, 233.0, 190.0], "includesElement__atomic_volume": [19.2, 6.7, 5.3], "includesElement__atomic_weight": [158.9254, 58.93319, 12.011], "includesElement__covalent_radius_cordero": [194.0, 138.0, 73.0], "includesElement__covalent_radius_pyykko": [168.0, 111.0, 75.0], "includesElement__covalent_radius_pyykko_double": [135.0, 103.0, 67.0], "includesElement__density": [8.23, 8.86, 2.2], "includesElement__dipole_polarizability": [170.0, 55.0, 11.3], "includesElement__dipole_polarizability_unc": [20.0, 4.0, 0.2], "includesElement__discovery_year": [1843, 1739], "includesElement__electron_affinity": [1.165, 0.6622565, 1.262119], "includesElement__electronegativity_allred-rochow": [0.0001009779, 0.0003165327, 0.0005777778], "includesElement__electronegativity_cottrell-sutton": [0.130247, 0.1874437, 0.2081666], "includesElement__electronegativity_ghosh": [0.198863, 0.1432363, 0.224776], "includesElement__electronegativity_gordy": [0.01696429, 0.03513514, 0.04333333], "includesElement__electronegativity_mulliken": [3.5144, 4.271633, 6.261208], "includesElement__electronegativity_nagle": [0.4014652, 0.5469655, 0.7073926], "includesElement__electronegativity_sanderson": [0.5163695, 0.8832424, 0.427525], "includesElement__en_ghosh": [0.198863, 0.1432363, 0.224776], "includesElement__evaporation_heat": [389.0, 389.1], "includesElement__glawe_number": [25, 70, 87], "includesElement__heat_of_formation": [388.7, 426.7, 716.87], "includesElement__is_radioactive": [false], "includesElement__lattice_constant": [3.6, 2.51, 3.57], "includesElement__mendeleev_number": [29, 63, 87], "includesElement__molar_heat_capacity": [28.91, 24.81, 8.517], "includesElement__period": [6, 4, 2], "includesElement__pettifor_number": [26, 64, 95], "includesElement__specific_heat_capacity": [0.182, 0.421, 0.709], "includesElement__vdw_radius": [233.0, 200.0, 170.0], "includesElement__vdw_radius_alvarez": [279.0, 240.0, 177.0], "includesElement__vdw_radius_mm3": [270.0, 223.0, 204.0], "includesElement__vdw_radius_uff": [345.1, 287.2, 385.1], "includesElement__abundance_sea": [1.4e-07, 2e-05, 28.0], "includesElement__atomic_weight_uncertainty": [2e-05, 4e-06], "includesElement__c6_gb": [2590.0, 461.0, 47.9], "includesElement__thermal_conductivity": [11.1, 100.0, 1.59], "includesElement__is_monoisotopic": [true], "includesElement__covalent_radius_pyykko_triple": [96.0, 60.0], "includesElement__electronegativity_pauling": [1.88, 2.55], "includesElement__en_pauling": [1.88, 2.55], "includesElement__fusion_heat": [15.48], "includesElement__group_id": [9, 14], "includesElement__covalent_radius_bragg": [137.0, 77.0], "includesElement__electronegativity_allen": [10.86, 15.05], "includesElement__en_allen": [10.86, 15.05], "includesElement__metallic_radius": [116.0], "includesElement__metallic_radius_c12": [125.0, 86.0], "includesElement__vdw_radius_batsanov": [200.0, 170.0], "includesElement__c6": [408.0, 46.6], "includesElement__gas_basicity": [719.8], "includesElement__proton_affinity": [742.7], "includesElement__vdw_radius_dreiding": [389.83], "includesElement__vdw_radius_bondi": [170.0], "includesElement__vdw_radius_rt": [177.0], "formula": ["C2Co1Tb1"], "spacegroup": ["38"], "thermalConductivity": [18.4697], "icsd": ["57006"], "band_gap": [0.0], "density": [8.361029], "density_atomic": [12.00962], "deprecated": [false], "efermi": [5.580485], "energy_above_hull": [0.0], "energy_per_atom": [-7.888216], "formation_energy_per_atom": [-0.3310636], "homogeneous_poisson": [0.271], "is_gap_direct": [false], "is_magnetic": [false], "is_metal": [true], "is_stable": [true], "nelements": [3], "nsites": [4], "num_magnetic_sites": [0], "num_unique_magnetic_sites": [0], "theoretical": [false], "total_magnetization": [2.5e-06], "total_magnetization_normalized_formula_units": [2.5e-06], "total_magnetization_normalized_vol": [5.204162e-08], "uncorrected_energy_per_atom": [-16.48666], "universal_anisotropy": [0.451], "volume": [48.03848], "equilibrium_reaction_energy_per_atom": [-0.1132571]}