{"includesElement": ["", "Ba", "Zr", "S"], "includesElement___series_id": [4, 8, 1], "includesElement__abundance_crust": [425.0, 165.0, 350.0], "includesElement__atomic_number": [56, 40, 16], "includesElement__atomic_radius": [215.0, 155.0, 100.0], "includesElement__atomic_radius_rahm": [293.0, 269.0, 214.0], "includesElement__atomic_volume": [39.0, 14.1, 15.5], "includesElement__atomic_weight": [137.327, 91.224, 32.06], "includesElement__covalent_radius_cordero": [215.0, 175.0, 105.0], "includesElement__covalent_radius_pyykko": [196.0, 154.0, 103.0], "includesElement__covalent_radius_pyykko_double": [161.0, 127.0, 94.0], "includesElement__covalent_radius_pyykko_triple": [149.0, 121.0, 95.0], "includesElement__density": [3.62, 6.52, 2.07], "includesElement__dipole_polarizability": [272.0, 112.0, 19.4], "includesElement__dipole_polarizability_unc": [10.0, 13.0, 0.1], "includesElement__discovery_year": [1808, 1789], "includesElement__electron_affinity": [0.14462, 0.426, 2.077104], "includesElement__electronegativity_allred-rochow": [7.418784e-05, 0.0001328217, 0.0005137148], "includesElement__electronegativity_cottrell-sutton": [0.1205853, 0.1430194, 0.2300274], "includesElement__electronegativity_ghosh": [0.1586786, 0.1248887, 0.23596], "includesElement__electronegativity_gordy": [0.01454082, 0.02045455, 0.05291262], "includesElement__electronegativity_mulliken": [2.678142, 3.52995, 6.218557], "includesElement__electronegativity_nagle": [0.1944556, 0.3293169, 0.6762644], "includesElement__electronegativity_pauling": [0.89, 1.33, 2.58], "includesElement__electronegativity_sanderson": [0.3032951, 0.4744467, 0.6397251], "includesElement__en_ghosh": [0.1586786, 0.1248887, 0.23596], "includesElement__en_pauling": [0.89, 1.33, 2.58], "includesElement__evaporation_heat": [142.0, 567.0, 10.5], "includesElement__fusion_heat": [7.66, 19.2, 1.23], "includesElement__glawe_number": [14, 49, 96], "includesElement__group_id": [2, 4, 16], "includesElement__heat_of_formation": [179.1, 610.0, 277.17], "includesElement__is_radioactive": [false], "includesElement__lattice_constant": [5.02, 3.23, 10.47], "includesElement__mendeleev_number": [9, 44, 100], "includesElement__molar_heat_capacity": [28.07, 25.36, 22.7], "includesElement__period": [6, 5, 3], "includesElement__pettifor_number": [14, 49, 94], "includesElement__specific_heat_capacity": [0.204, 0.278, 0.708], "includesElement__vdw_radius": [268.0, 223.0, 180.0], "includesElement__vdw_radius_alvarez": [303.0, 252.0, 189.0], "includesElement__vdw_radius_mm3": [307.0, 254.0, 215.0], "includesElement__vdw_radius_uff": [370.3, 312.4, 403.5], "includesElement__abundance_sea": [0.013, 3e-05, 905.0], "includesElement__atomic_weight_uncertainty": [0.007, 0.002], "includesElement__c6_gb": [5540.0, 1360.0, 140.0], "includesElement__covalent_radius_bragg": [210.0, 102.0], "includesElement__electronegativity_allen": [5.211, 7.808, 15.31], "includesElement__en_allen": [5.211, 7.808, 15.31], "includesElement__metallic_radius": [198.0, 145.0, 104.0], "includesElement__metallic_radius_c12": [222.0, 160.0, 127.0], "includesElement__vdw_radius_batsanov": [270.0, 230.0, 180.0], "includesElement__vdw_radius_truhlar": [268.0], "includesElement__thermal_conductivity": [22.7, 0.27], "includesElement__c6": [134.0], "includesElement__vdw_radius_dreiding": [403.0], "includesElement__gas_basicity": [640.2], "includesElement__proton_affinity": [664.3], "includesElement__vdw_radius_bondi": [180.0], "includesElement__vdw_radius_rt": [181.0], "formula": ["Ba4S12Zr4"], "spacegroup": ["62"], "thermalConductivity": [2.19048], "icsd": ["165977"], "band_gap": [0.99], "density": [4.262395], "density_atomic": [25.30283], "deprecated": [false], "efermi": [2.881594], "energy_above_hull": [0.0], "energy_per_atom": [-6.683471], "formation_energy_per_atom": [-2.107121], "homogeneous_poisson": [0.293], "is_gap_direct": [true], "is_magnetic": [false], "is_metal": [false], "is_stable": [true], "nelements": [3], "nsites": [20], "num_magnetic_sites": [0], "num_unique_magnetic_sites": [0], "theoretical": [false], "total_magnetization": [0.0], "total_magnetization_normalized_formula_units": [0.0], "total_magnetization_normalized_vol": [0.0], "uncorrected_energy_per_atom": [-16.76418], "universal_anisotropy": [0.327], "volume": [506.0567], "cbm": [3.7484], "e_electronic": [9.587379], "e_ionic": [100.7822], "e_total": [110.3696], "equilibrium_reaction_energy_per_atom": [-0.01851395], "n": [3.096349], "vbm": [2.7584]}