{"includesElement": ["", "P", "Al", "O"], "includesElement___series_id": [1, 7], "includesElement__abundance_crust": [1050.0, 82300.0, 461000.0], "includesElement__atomic_number": [15, 13, 8], "includesElement__atomic_radius": [100.0, 125.0, 60.0], "includesElement__atomic_radius_rahm": [223.0, 239.0, 171.0], "includesElement__atomic_volume": [17.0, 10.0, 14.0], "includesElement__atomic_weight": [30.97376, 26.98154, 15.999], "includesElement__covalent_radius_cordero": [107.0, 121.0, 66.0], "includesElement__covalent_radius_pyykko": [111.0, 126.0, 63.0], "includesElement__covalent_radius_pyykko_double": [102.0, 113.0, 57.0], "includesElement__covalent_radius_pyykko_triple": [94.0, 111.0, 53.0], "includesElement__density": [1.823, 2.7, 0.001308], "includesElement__dipole_polarizability": [25.0, 57.8, 5.3], "includesElement__dipole_polarizability_unc": [1.0, 0.2], "includesElement__discovery_year": [1669, 1825, 1774], "includesElement__electron_affinity": [0.746607, 0.43283, 1.461113], "includesElement__electronegativity_allred-rochow": [0.0003895788, 0.0002204586, 0.001146384], "includesElement__electronegativity_cottrell-sutton": [0.2079501, 0.1666667, 0.2687419], "includesElement__electronegativity_ghosh": [0.206931, 0.150078, 0.304575], "includesElement__electronegativity_gordy": [0.04324324, 0.02777778, 0.07222222], "includesElement__electronegativity_mulliken": [5.616646, 3.209299, 7.539584], "includesElement__electronegativity_nagle": [0.5848035, 0.3730192, 1.042218], "includesElement__electronegativity_pauling": [2.19, 1.61, 3.44], "includesElement__electronegativity_sanderson": [0.4510269, 0.2360927, 0.9416494], "includesElement__en_ghosh": [0.206931, 0.150078, 0.304575], "includesElement__en_pauling": [2.19, 1.61, 3.44], "includesElement__evaporation_heat": [49.8, 284.1], "includesElement__fusion_heat": [2.51, 10.75], "includesElement__glawe_number": [89, 78, 97], "includesElement__group_id": [15, 13, 16], "includesElement__heat_of_formation": [316.5, 330.9, 249.229], "includesElement__is_radioactive": [false], "includesElement__lattice_constant": [7.17, 4.05, 6.83], "includesElement__mendeleev_number": [94, 82, 99], "includesElement__molar_heat_capacity": [23.824, 24.2, 29.378], "includesElement__period": [3, 2], "includesElement__pettifor_number": [90, 80, 101], "includesElement__specific_heat_capacity": [0.769, 0.897, 0.918], "includesElement__vdw_radius": [180.0, 184.0, 152.0], "includesElement__vdw_radius_alvarez": [190.0, 225.0, 150.0], "includesElement__vdw_radius_mm3": [222.0, 236.0, 182.0], "includesElement__vdw_radius_uff": [414.7, 449.9, 350.0], "includesElement__abundance_sea": [0.06, 0.002, 857000.0], "includesElement__atomic_weight_uncertainty": [5e-09, 7e-07], "includesElement__c6_gb": [187.0, 520.0, 16.7], "includesElement__electronegativity_allen": [13.33, 9.539, 21.36], "includesElement__en_allen": [13.33, 9.539, 21.36], "includesElement__metallic_radius": [110.0, 125.0], "includesElement__metallic_radius_c12": [128.0, 143.0], "includesElement__vdw_radius_batsanov": [195.0, 210.0, 155.0], "includesElement__c6": [185.0, 528.0, 15.6], "includesElement__is_monoisotopic": [true], "includesElement__vdw_radius_dreiding": [415.0, 439.0, 340.46], "includesElement__gas_basicity": [604.8, 459.6], "includesElement__proton_affinity": [626.8, 485.2], "includesElement__vdw_radius_bondi": [180.0, 152.0], "includesElement__covalent_radius_bragg": [135.0, 65.0], "includesElement__thermal_conductivity": [237.0, 0.027], "includesElement__vdw_radius_truhlar": [184.0], "includesElement__vdw_radius_rt": [158.0], "formula": ["Al2O8P2"], "spacegroup": ["186"], "thermalConductivity": [6.164], "icsd": ["279582"], "band_gap": [5.3232], "density": [1.939539], "density_atomic": [17.4017], "deprecated": [false], "efermi": [-1.201047], "energy_above_hull": [0.01850467], "energy_per_atom": [-7.93415], "formation_energy_per_atom": [-3.105799], "homogeneous_poisson": [0.354], "is_gap_direct": [true], "is_magnetic": [false], "is_metal": [false], "is_stable": [false], "nelements": [3], "nsites": [12], "num_magnetic_sites": [0], "num_unique_magnetic_sites": [0], "theoretical": [false], "total_magnetization": [0.0], "total_magnetization_normalized_formula_units": [0.0], "total_magnetization_normalized_vol": [0.0], "uncorrected_energy_per_atom": [-9.489802], "universal_anisotropy": [0.218], "volume": [208.8203], "cbm": [4.0722], "e_electronic": [2.013152], "e_ionic": [1.60772], "e_total": [3.620872], "n": [1.418856], "vbm": [-1.251], "e_ij_max": [0.4459891]}