{"includesElement": ["", "Zn", "O", "S"], "includesElement___series_id": [8, 1], "includesElement__abundance_crust": [70.0, 461000.0, 350.0], "includesElement__atomic_number": [30, 8, 16], "includesElement__atomic_radius": [135.0, 60.0, 100.0], "includesElement__atomic_radius_rahm": [222.0, 171.0, 214.0], "includesElement__atomic_volume": [9.2, 14.0, 15.5], "includesElement__atomic_weight": [65.38, 15.999, 32.06], "includesElement__covalent_radius_cordero": [122.0, 66.0, 105.0], "includesElement__covalent_radius_pyykko": [118.0, 63.0, 103.0], "includesElement__covalent_radius_pyykko_double": [120.0, 57.0, 94.0], "includesElement__density": [7.134, 0.001308, 2.07], "includesElement__dipole_polarizability": [38.67, 5.3, 19.4], "includesElement__dipole_polarizability_unc": [0.3, 0.2, 0.1], "includesElement__electronegativity_allred-rochow": [0.0003124102, 0.001146384, 0.0005137148], "includesElement__electronegativity_cottrell-sutton": [0.1920011, 0.2687419, 0.2300274], "includesElement__electronegativity_ghosh": [0.1551518, 0.304575, 0.23596], "includesElement__electronegativity_gordy": [0.03686441, 0.07222222, 0.05291262], "includesElement__electronegativity_mulliken": [4.6971, 7.539584, 6.218557], "includesElement__electronegativity_nagle": [0.6770213, 1.042218, 0.6762644], "includesElement__electronegativity_pauling": [1.65, 3.44, 2.58], "includesElement__electronegativity_sanderson": [0.8100877, 0.9416494, 0.6397251], "includesElement__en_ghosh": [0.1551518, 0.304575, 0.23596], "includesElement__en_pauling": [1.65, 3.44, 2.58], "includesElement__evaporation_heat": [114.8, 10.5], "includesElement__fusion_heat": [7.28, 1.23], "includesElement__glawe_number": [74, 97, 96], "includesElement__group_id": [12, 16], "includesElement__heat_of_formation": [130.4, 249.229, 277.17], "includesElement__is_radioactive": [false], "includesElement__lattice_constant": [2.66, 6.83, 10.47], "includesElement__mendeleev_number": [77, 99, 100], "includesElement__molar_heat_capacity": [25.39, 29.378, 22.7], "includesElement__period": [4, 2, 3], "includesElement__pettifor_number": [76, 101, 94], "includesElement__specific_heat_capacity": [0.388, 0.918, 0.708], "includesElement__vdw_radius": [201.0, 152.0, 180.0], "includesElement__vdw_radius_alvarez": [239.0, 150.0, 189.0], "includesElement__vdw_radius_mm3": [229.0, 182.0, 215.0], "includesElement__vdw_radius_uff": [276.3, 350.0, 403.5], "includesElement__abundance_sea": [0.0049, 857000.0, 905.0], "includesElement__atomic_weight_uncertainty": [0.02], "includesElement__c6_gb": [276.0, 16.7, 140.0], "includesElement__covalent_radius_bragg": [132.0, 65.0, 102.0], "includesElement__electronegativity_allen": [9.395, 21.36, 15.31], "includesElement__en_allen": [9.395, 21.36, 15.31], "includesElement__metallic_radius": [121.0, 104.0], "includesElement__metallic_radius_c12": [134.0, 127.0], "includesElement__thermal_conductivity": [116.0, 0.027, 0.27], "includesElement__vdw_radius_batsanov": [210.0, 155.0, 180.0], "includesElement__c6": [284.0, 15.6, 134.0], "includesElement__gas_basicity": [586.0, 459.6, 640.2], "includesElement__proton_affinity": [608.6, 485.2, 664.3], "includesElement__covalent_radius_pyykko_triple": [53.0, 95.0], "includesElement__discovery_year": [1774], "includesElement__electron_affinity": [1.461113, 2.077104], "includesElement__vdw_radius_dreiding": [340.46, 403.0], "includesElement__vdw_radius_bondi": [152.0, 180.0], "includesElement__vdw_radius_rt": [158.0, 181.0], "formula": ["O4S1Zn1"], "spacegroup": ["216"], "thermalConductivity": [2.38717], "icsd": ["2456"], "band_gap": [4.2625], "density": [2.308015], "density_atomic": [19.36223], "deprecated": [false], "efermi": [-2.615201], "energy_above_hull": [0.03826475], "energy_per_atom": [-8.349783], "formation_energy_per_atom": [-1.551749], "homogeneous_poisson": [0.442], "is_gap_direct": [false], "is_magnetic": [false], "is_metal": [false], "is_stable": [false], "nelements": [3], "nsites": [6], "num_magnetic_sites": [0], "num_unique_magnetic_sites": [0], "theoretical": [false], "total_magnetization": [0.0018972], "total_magnetization_normalized_formula_units": [0.0018972], "total_magnetization_normalized_vol": [1.633077e-05], "uncorrected_energy_per_atom": [-5.564992], "universal_anisotropy": [2.291], "volume": [116.1734], "cbm": [1.6184], "e_electronic": [2.058109], "e_ionic": [1.950695], "e_total": [4.008804], "n": [1.434611], "vbm": [-2.6441], "e_ij_max": [0.4786067]}