{"includesElement": ["", "O", "K", "Cl"], "includesElement___series_id": [1, 3, 6], "includesElement__abundance_crust": [461000.0, 20900.0, 145.0], "includesElement__atomic_number": [8, 19, 17], "includesElement__atomic_radius": [60.0, 220.0, 100.0], "includesElement__atomic_radius_rahm": [171.0, 234.0, 206.0], "includesElement__atomic_volume": [14.0, 45.3, 18.7], "includesElement__atomic_weight": [15.999, 39.0983, 35.45], "includesElement__covalent_radius_cordero": [66.0, 203.0, 102.0], "includesElement__covalent_radius_pyykko": [63.0, 196.0, 99.0], "includesElement__covalent_radius_pyykko_double": [57.0, 193.0, 95.0], "includesElement__covalent_radius_pyykko_triple": [53.0, 93.0], "includesElement__density": [0.001308, 0.89, 0.002898], "includesElement__dipole_polarizability": [5.3, 289.7, 14.6], "includesElement__dipole_polarizability_unc": [0.2, 0.3, 0.1], "includesElement__discovery_year": [1774, 1807], "includesElement__electron_affinity": [1.461113, 0.50147, 3.612725], "includesElement__electronegativity_allred-rochow": [0.001146384, 5.726781e-05, 0.0006223855], "includesElement__electronegativity_cottrell-sutton": [0.2687419, 0.1059457, 0.248226], "includesElement__electronegativity_ghosh": [0.304575, 0.0981896, 0.263803], "includesElement__electronegativity_gordy": [0.07222222, 0.01122449, 0.06161616], "includesElement__electronegativity_mulliken": [7.539584, 2.421067, 8.290178], "includesElement__electronegativity_nagle": [1.042218, 0.1511299, 0.7826755], "includesElement__electronegativity_pauling": [3.44, 0.82, 3.16], "includesElement__electronegativity_sanderson": [0.9416494, 0.1218383, 0.8123773], "includesElement__en_ghosh": [0.304575, 0.0981896, 0.263803], "includesElement__en_pauling": [3.44, 0.82, 3.16], "includesElement__glawe_number": [97, 10, 101], "includesElement__group_id": [16, 1, 17], "includesElement__heat_of_formation": [249.229, 89.0, 121.302], "includesElement__is_radioactive": [false], "includesElement__lattice_constant": [6.83, 5.23, 6.24], "includesElement__mendeleev_number": [99, 3, 107], "includesElement__molar_heat_capacity": [29.378, 29.6, 33.949], "includesElement__period": [2, 4, 3], "includesElement__pettifor_number": [101, 10, 99], "includesElement__specific_heat_capacity": [0.918, 0.757, 0.479], "includesElement__vdw_radius": [152.0, 275.0, 175.0], "includesElement__vdw_radius_alvarez": [150.0, 273.0, 182.0], "includesElement__vdw_radius_mm3": [182.0, 309.0, 207.0], "includesElement__vdw_radius_uff": [350.0, 381.2, 394.7], "includesElement__abundance_sea": [857000.0, 399.0, 19400.0], "includesElement__c6_gb": [16.7, 3910.0, 97.1], "includesElement__covalent_radius_bragg": [65.0, 207.0, 105.0], "includesElement__electronegativity_allen": [21.36, 4.34, 16.97], "includesElement__en_allen": [21.36, 4.34, 16.97], "includesElement__thermal_conductivity": [0.027, 79.0, 0.009], "includesElement__vdw_radius_batsanov": [155.0, 280.0, 180.0], "includesElement__c6": [15.6, 3923.0, 94.6], "includesElement__vdw_radius_dreiding": [340.46, 395.03], "includesElement__gas_basicity": [459.6, 490.1], "includesElement__proton_affinity": [485.2, 513.6], "includesElement__vdw_radius_bondi": [152.0, 275.0, 175.0], "includesElement__vdw_radius_rt": [158.0, 176.0], "includesElement__evaporation_heat": [2.33, 20.41], "includesElement__fusion_heat": [102.5, 6.41], "includesElement__atomic_weight_uncertainty": [0.0001], "includesElement__metallic_radius": [203.0], "includesElement__metallic_radius_c12": [235.0, 91.0], "formula": ["Cl1K1O4"], "spacegroup": ["216"], "thermalConductivity": [3.59182], "icsd": ["33562"], "band_gap": [5.1439], "density": [2.297588], "density_atomic": [16.68894], "deprecated": [false], "efermi": [-1.335811], "energy_above_hull": [0.03935334], "energy_per_atom": [-4.839146], "formation_energy_per_atom": [-1.040985], "homogeneous_poisson": [0.303], "is_gap_direct": [false], "is_magnetic": [false], "is_metal": [false], "is_stable": [false], "nelements": [3], "nsites": [6], "num_magnetic_sites": [0], "num_unique_magnetic_sites": [0], "theoretical": [false], "total_magnetization": [1e-07], "total_magnetization_normalized_formula_units": [1e-07], "total_magnetization_normalized_vol": [9.986654e-10], "uncorrected_energy_per_atom": [-4.381146], "universal_anisotropy": [0.017], "volume": [100.1336], "cbm": [3.711], "e_electronic": [2.042393], "e_ionic": [8.59009], "e_total": [10.63248], "n": [1.429123], "vbm": [-1.4329], "e_ij_max": [0.08520333]}