{"includesElement": ["", "O", "Cl", "Cs"], "includesElement___series_id": [1, 6, 3], "includesElement__abundance_crust": [461000.0, 145.0, 3.0], "includesElement__atomic_number": [8, 17, 55], "includesElement__atomic_radius": [60.0, 100.0, 260.0], "includesElement__atomic_radius_rahm": [171.0, 206.0, 249.0], "includesElement__atomic_volume": [14.0, 18.7, 70.0], "includesElement__atomic_weight": [15.999, 35.45, 132.9055], "includesElement__covalent_radius_cordero": [66.0, 102.0, 244.0], "includesElement__covalent_radius_pyykko": [63.0, 99.0, 232.0], "includesElement__covalent_radius_pyykko_double": [57.0, 95.0, 209.0], "includesElement__covalent_radius_pyykko_triple": [53.0, 93.0], "includesElement__density": [0.001308, 0.002898, 1.873], "includesElement__dipole_polarizability": [5.3, 14.6, 400.9], "includesElement__dipole_polarizability_unc": [0.2, 0.1, 0.7], "includesElement__discovery_year": [1774, 1860], "includesElement__electron_affinity": [1.461113, 3.612725, 0.471626], "includesElement__electronegativity_allred-rochow": [0.001146384, 0.0006223855, 4.087396e-05], "includesElement__electronegativity_cottrell-sutton": [0.2687419, 0.248226, 0.09737946], "includesElement__electronegativity_ghosh": [0.304575, 0.263803, 0.1542125], "includesElement__electronegativity_gordy": [0.07222222, 0.06161616, 0.009482759], "includesElement__electronegativity_mulliken": [7.539584, 8.290178, 2.182766], "includesElement__electronegativity_nagle": [1.042218, 0.7826755, 0.1356192], "includesElement__electronegativity_pauling": [3.44, 3.16, 0.79], "includesElement__electronegativity_sanderson": [0.9416494, 0.8123773, 0.1814531], "includesElement__en_ghosh": [0.304575, 0.263803, 0.1542125], "includesElement__en_pauling": [3.44, 3.16, 0.79], "includesElement__glawe_number": [97, 101, 8], "includesElement__group_id": [16, 17, 1], "includesElement__heat_of_formation": [249.229, 121.302, 76.5], "includesElement__is_radioactive": [false], "includesElement__lattice_constant": [6.83, 6.24, 6.05], "includesElement__mendeleev_number": [99, 107, 5], "includesElement__molar_heat_capacity": [29.378, 33.949, 32.21], "includesElement__period": [2, 3, 6], "includesElement__pettifor_number": [101, 99, 8], "includesElement__specific_heat_capacity": [0.918, 0.479, 0.242], "includesElement__vdw_radius": [152.0, 175.0, 343.0], "includesElement__vdw_radius_alvarez": [150.0, 182.0, 348.0], "includesElement__vdw_radius_mm3": [182.0, 207.0, 344.0], "includesElement__vdw_radius_uff": [350.0, 394.7, 451.7], "includesElement__abundance_sea": [857000.0, 19400.0, 0.0003], "includesElement__c6_gb": [16.7, 97.1, 6660.0], "includesElement__covalent_radius_bragg": [65.0, 105.0, 237.0], "includesElement__electronegativity_allen": [21.36, 16.97, 3.898], "includesElement__en_allen": [21.36, 16.97, 3.898], "includesElement__thermal_conductivity": [0.027, 0.009, 35.9], "includesElement__vdw_radius_batsanov": [155.0, 180.0, 300.0], "includesElement__c6": [15.6, 94.6], "includesElement__vdw_radius_dreiding": [340.46, 395.03], "includesElement__gas_basicity": [459.6, 490.1], "includesElement__proton_affinity": [485.2, 513.6], "includesElement__vdw_radius_bondi": [152.0, 175.0], "includesElement__vdw_radius_rt": [158.0, 176.0], "includesElement__evaporation_heat": [20.41, 68.3], "includesElement__fusion_heat": [6.41, 2.09], "includesElement__metallic_radius_c12": [91.0, 267.0], "includesElement__atomic_weight_uncertainty": [6e-08], "includesElement__metallic_radius": [235.0], "includesElement__is_monoisotopic": [true], "includesElement__vdw_radius_truhlar": [343.0], "formula": ["Cl4Cs4O16"], "spacegroup": ["216"], "thermalConductivity": [1.12733], "icsd": ["33566"], "band_gap": [5.3228], "density": [3.19321], "density_atomic": [20.13837], "deprecated": [false], "efermi": [-1.421529], "energy_above_hull": [0.01625127], "energy_per_atom": [-9.89153], "formation_energy_per_atom": [-0.7091559], "homogeneous_poisson": [0.293], "is_gap_direct": [false], "is_magnetic": [false], "is_metal": [false], "is_stable": [false], "nelements": [3], "nsites": [6], "num_magnetic_sites": [0], "num_unique_magnetic_sites": [0], "theoretical": [false], "total_magnetization": [0.0], "total_magnetization_normalized_formula_units": [0.0], "total_magnetization_normalized_vol": [0.0], "uncorrected_energy_per_atom": [-9.89153], "universal_anisotropy": [0.66], "volume": [120.8302], "cbm": [3.8046], "e_electronic": [2.079586], "e_ionic": [3.509336], "e_total": [5.588922], "n": [1.442077], "vbm": [-1.5182], "e_ij_max": [0.0478489]}