{"includesElement": ["", "O", "Cl", "Rb"], "includesElement___series_id": [1, 6, 3], "includesElement__abundance_crust": [461000.0, 145.0, 90.0], "includesElement__atomic_number": [8, 17, 37], "includesElement__atomic_radius": [60.0, 100.0, 235.0], "includesElement__atomic_radius_rahm": [171.0, 206.0, 240.0], "includesElement__atomic_volume": [14.0, 18.7, 55.9], "includesElement__atomic_weight": [15.999, 35.45, 85.4678], "includesElement__covalent_radius_cordero": [66.0, 102.0, 220.0], "includesElement__covalent_radius_pyykko": [63.0, 99.0, 210.0], "includesElement__covalent_radius_pyykko_double": [57.0, 95.0, 202.0], "includesElement__covalent_radius_pyykko_triple": [53.0, 93.0], "includesElement__density": [0.001308, 0.002898, 1.53], "includesElement__dipole_polarizability": [5.3, 14.6, 319.8], "includesElement__dipole_polarizability_unc": [0.2, 0.1, 0.3], "includesElement__discovery_year": [1774, 1861], "includesElement__electron_affinity": [1.461113, 3.612725, 0.48592], "includesElement__electronegativity_allred-rochow": [0.001146384, 0.0006223855, 4.988662e-05], "includesElement__electronegativity_cottrell-sutton": [0.2687419, 0.248226, 0.1023533], "includesElement__electronegativity_ghosh": [0.304575, 0.263803, 0.104686], "includesElement__electronegativity_gordy": [0.07222222, 0.06161616, 0.01047619], "includesElement__electronegativity_mulliken": [7.539584, 8.290178, 2.331524], "includesElement__electronegativity_nagle": [1.042218, 0.7826755, 0.1462314], "includesElement__electronegativity_pauling": [3.44, 3.16, 0.82], "includesElement__electronegativity_sanderson": [0.9416494, 0.8123773, 0.1764136], "includesElement__en_ghosh": [0.304575, 0.263803, 0.104686], "includesElement__en_pauling": [3.44, 3.16, 0.82], "includesElement__glawe_number": [97, 101, 9], "includesElement__group_id": [16, 17, 1], "includesElement__heat_of_formation": [249.229, 121.302, 80.9], "includesElement__is_radioactive": [false], "includesElement__lattice_constant": [6.83, 6.24, 5.59], "includesElement__mendeleev_number": [99, 107, 4], "includesElement__molar_heat_capacity": [29.378, 33.949, 31.06], "includesElement__period": [2, 3, 5], "includesElement__pettifor_number": [101, 99, 9], "includesElement__specific_heat_capacity": [0.918, 0.479, 0.363], "includesElement__vdw_radius": [152.0, 175.0, 303.0], "includesElement__vdw_radius_alvarez": [150.0, 182.0, 321.0], "includesElement__vdw_radius_mm3": [182.0, 207.0, 325.0], "includesElement__vdw_radius_uff": [350.0, 394.7, 411.4], "includesElement__abundance_sea": [857000.0, 19400.0, 0.12], "includesElement__c6_gb": [16.7, 97.1, 4660.0], "includesElement__covalent_radius_bragg": [65.0, 105.0, 225.0], "includesElement__electronegativity_allen": [21.36, 16.97, 4.177], "includesElement__en_allen": [21.36, 16.97, 4.177], "includesElement__thermal_conductivity": [0.027, 0.009, 58.2], "includesElement__vdw_radius_batsanov": [155.0, 180.0, 290.0], "includesElement__c6": [15.6, 94.6, 4769.0], "includesElement__vdw_radius_dreiding": [340.46, 395.03], "includesElement__gas_basicity": [459.6, 490.1], "includesElement__proton_affinity": [485.2, 513.6], "includesElement__vdw_radius_bondi": [152.0, 175.0], "includesElement__vdw_radius_rt": [158.0, 176.0], "includesElement__evaporation_heat": [20.41, 75.8], "includesElement__fusion_heat": [6.41, 2.2], "includesElement__metallic_radius_c12": [91.0, 248.0], "includesElement__atomic_weight_uncertainty": [0.0003], "includesElement__metallic_radius": [216.0], "includesElement__vdw_radius_truhlar": [303.0], "formula": ["Cl1O4Rb1"], "spacegroup": ["216"], "thermalConductivity": [3.66355], "icsd": ["33565"], "band_gap": [5.2141], "density": [2.888767], "density_atomic": [17.71599], "deprecated": [false], "efermi": [-1.502801], "energy_above_hull": [0.02521341], "energy_per_atom": [-4.839332], "formation_energy_per_atom": [-1.066311], "is_gap_direct": [false], "is_magnetic": [false], "is_metal": [false], "is_stable": [false], "nelements": [3], "nsites": [6], "num_magnetic_sites": [0], "num_unique_magnetic_sites": [0], "theoretical": [false], "total_magnetization": [1e-07], "total_magnetization_normalized_formula_units": [1e-07], "total_magnetization_normalized_vol": [9.407697e-10], "uncorrected_energy_per_atom": [-4.381332], "volume": [106.2959], "cbm": [3.699], "e_electronic": [2.06356], "e_ionic": [4.299329], "e_total": [6.362889], "n": [1.43651], "vbm": [-1.5151], "e_ij_max": [0.03319667]}