{"includesElement": ["", "Li", "O", "U"], "includesElement___series_id": [3, 1, 10], "includesElement__abundance_crust": [20.0, 461000.0, 2.7], "includesElement__atomic_number": [3, 8, 92], "includesElement__atomic_radius": [145.0, 60.0, 175.0], "includesElement__atomic_radius_rahm": [220.0, 171.0, 283.0], "includesElement__atomic_volume": [13.1, 14.0, 12.5], "includesElement__atomic_weight": [6.94, 15.999, 238.0289], "includesElement__covalent_radius_cordero": [128.0, 66.0, 196.0], "includesElement__covalent_radius_pyykko": [133.0, 63.0, 170.0], "includesElement__covalent_radius_pyykko_double": [124.0, 57.0, 134.0], "includesElement__density": [0.534, 0.001308, 19.1], "includesElement__dipole_polarizability": [164.1125, 5.3, 129.0], "includesElement__dipole_polarizability_unc": [0.0005, 0.2, 17.0], "includesElement__discovery_year": [1817, 1774, 1789], "includesElement__electron_affinity": [0.618049, 1.461113], "includesElement__electronegativity_allred-rochow": [7.3492e-05, 0.001146384, 0.0001038062], "includesElement__electronegativity_cottrell-sutton": [0.09886575, 0.2687419, 0.1328422], "includesElement__electronegativity_ghosh": [0.105093, 0.304575, 0.13207], "includesElement__electronegativity_gordy": [0.009774436, 0.07222222, 0.01764706], "includesElement__electronegativity_mulliken": [3.004882, 7.539584, 3.097025], "includesElement__electronegativity_nagle": [0.1826499, 1.042218, 0.3596283], "includesElement__electronegativity_pauling": [0.98, 3.44, 1.7], "includesElement__electronegativity_sanderson": [0.04886793, 0.9416494, 0.618118], "includesElement__en_ghosh": [0.105093, 0.304575, 0.13207], "includesElement__en_pauling": [0.98, 3.44, 1.7], "includesElement__evaporation_heat": [148.0, 417.0], "includesElement__fusion_heat": [2.89, 12.6], "includesElement__glawe_number": [12, 97, 36], "includesElement__group_id": [1, 16], "includesElement__heat_of_formation": [159.3, 249.229, 533.0], "includesElement__is_radioactive": [false, true], "includesElement__lattice_constant": [3.49, 6.83, 2.85], "includesElement__mendeleev_number": [1, 99, 20], "includesElement__molar_heat_capacity": [24.86, 29.378, 27.665], "includesElement__period": [2, 7], "includesElement__pettifor_number": [12, 101, 45], "includesElement__specific_heat_capacity": [3.582, 0.918, 0.116], "includesElement__vdw_radius": [182.0, 152.0, 241.0], "includesElement__vdw_radius_alvarez": [212.0, 150.0, 271.0], "includesElement__vdw_radius_mm3": [255.0, 182.0, 252.0], "includesElement__vdw_radius_uff": [245.1, 350.0, 339.5], "includesElement__abundance_sea": [0.18, 857000.0, 0.0032], "includesElement__c6_gb": [1410.0, 16.7], "includesElement__covalent_radius_bragg": [150.0, 65.0], "includesElement__electronegativity_allen": [5.392, 21.36], "includesElement__en_allen": [5.392, 21.36], "includesElement__metallic_radius": [123.0], "includesElement__metallic_radius_c12": [155.0], "includesElement__thermal_conductivity": [84.8, 0.027, 27.5], "includesElement__vdw_radius_batsanov": [220.0, 155.0, 230.0], "includesElement__c6": [1392.0, 15.6], "includesElement__vdw_radius_bondi": [181.0, 152.0], "includesElement__covalent_radius_pyykko_triple": [53.0, 118.0], "includesElement__vdw_radius_dreiding": [340.46], "includesElement__gas_basicity": [459.6, 973.2], "includesElement__proton_affinity": [485.2, 995.2], "includesElement__vdw_radius_rt": [158.0], "includesElement__atomic_weight_uncertainty": [3e-05], "formula": ["Li3O4U1"], "spacegroup": ["139"], "thermalConductivity": [12.9415], "icsd": ["109090"], "band_gap": [0.378], "density": [6.464798], "density_atomic": [10.36583], "deprecated": [false], "efermi": [5.606188], "energy_above_hull": [0.0], "energy_per_atom": [-7.5498], "formation_energy_per_atom": [-2.946396], "homogeneous_poisson": [0.222], "is_gap_direct": [false], "is_magnetic": [true], "is_metal": [false], "is_stable": [true], "nelements": [3], "nsites": [8], "num_magnetic_sites": [1], "num_unique_magnetic_sites": [1], "theoretical": [false], "total_magnetization": [1.0], "total_magnetization_normalized_formula_units": [1.0], "total_magnetization_normalized_vol": [0.01205885], "uncorrected_energy_per_atom": [-16.75075], "universal_anisotropy": [0.287], "volume": [82.92667], "cbm": [5.8274], "equilibrium_reaction_energy_per_atom": [-0.02129841], "vbm": [5.4494]}