{"includesElement": ["", "O", "Hf", "Ho"], "includesElement___series_id": [1, 8, 9], "includesElement__abundance_crust": [461000.0, 3.0, 1.3], "includesElement__atomic_number": [8, 72, 67], "includesElement__atomic_radius": [60.0, 155.0, 175.0], "includesElement__atomic_radius_rahm": [171.0, 264.0, 273.0], "includesElement__atomic_volume": [14.0, 13.6, 18.7], "includesElement__atomic_weight": [15.999, 178.49, 164.9303], "includesElement__covalent_radius_cordero": [66.0, 175.0, 192.0], "includesElement__covalent_radius_pyykko": [63.0, 152.0, 166.0], "includesElement__covalent_radius_pyykko_double": [57.0, 128.0, 133.0], "includesElement__covalent_radius_pyykko_triple": [53.0, 122.0], "includesElement__density": [0.001308, 13.3, 8.8], "includesElement__dipole_polarizability": [5.3, 103.0, 156.0], "includesElement__dipole_polarizability_unc": [0.2, 6.0, 10.0], "includesElement__discovery_year": [1774, 1923, 1878], "includesElement__electron_affinity": [1.461113, 0.014], "includesElement__electronegativity_allred-rochow": [0.001146384, 0.00013634, 0.0001034258], "includesElement__electronegativity_cottrell-sutton": [0.2687419, 0.1439572, 0.1310293], "includesElement__electronegativity_ghosh": [0.304575, 0.229987, 0.207795], "includesElement__electronegativity_gordy": [0.07222222, 0.02072368, 0.01716867], "includesElement__electronegativity_mulliken": [7.539584, 3.419535, 3.01075], "includesElement__electronegativity_nagle": [1.042218, 0.3386421, 0.4367902], "includesElement__electronegativity_pauling": [3.44, 1.3, 1.23], "includesElement__electronegativity_sanderson": [0.9416494, 0.7352125, 0.5434919], "includesElement__en_ghosh": [0.304575, 0.229987, 0.207795], "includesElement__en_pauling": [3.44, 1.3, 1.23], "includesElement__glawe_number": [97, 50, 23], "includesElement__group_id": [16, 4], "includesElement__heat_of_formation": [249.229, 618.4, 300.6], "includesElement__is_radioactive": [false], "includesElement__lattice_constant": [6.83, 3.2, 3.58], "includesElement__mendeleev_number": [99, 45, 33], "includesElement__molar_heat_capacity": [29.378, 25.73, 27.15], "includesElement__period": [2, 6], "includesElement__pettifor_number": [101, 50, 24], "includesElement__specific_heat_capacity": [0.918, 0.144, 0.165], "includesElement__vdw_radius": [152.0, 223.0, 230.0], "includesElement__vdw_radius_alvarez": [150.0, 263.0, 281.0], "includesElement__vdw_radius_mm3": [182.0, 253.0, 267.0], "includesElement__vdw_radius_uff": [350.0, 314.1, 340.9], "includesElement__abundance_sea": [857000.0, 7e-06, 2.2e-07], "includesElement__c6_gb": [16.7, 1040.0, 2280.0], "includesElement__covalent_radius_bragg": [65.0], "includesElement__electronegativity_allen": [21.36, 6.83], "includesElement__en_allen": [21.36, 6.83], "includesElement__thermal_conductivity": [0.027, 23.0], "includesElement__vdw_radius_batsanov": [155.0, 225.0], "includesElement__c6": [15.6], "includesElement__vdw_radius_dreiding": [340.46], "includesElement__gas_basicity": [459.6], "includesElement__proton_affinity": [485.2], "includesElement__vdw_radius_bondi": [152.0], "includesElement__vdw_radius_rt": [158.0], "includesElement__evaporation_heat": [575.0, 301.0], "includesElement__fusion_heat": [25.1], "includesElement__atomic_weight_uncertainty": [0.02, 2e-05], "includesElement__metallic_radius": [144.0], "includesElement__metallic_radius_c12": [159.0], "includesElement__is_monoisotopic": [true], "formula": ["Hf4Ho4O14"], "spacegroup": ["227"], "thermalConductivity": [5.91332], "icsd": ["162005"], "band_gap": [3.1157], "density": [9.456117], "density_atomic": [12.75268], "deprecated": [false], "efermi": [2.395235], "energy_above_hull": [0.009387582], "energy_per_atom": [-21.90724], "formation_energy_per_atom": [-3.926321], "is_gap_direct": [false], "is_magnetic": [false], "is_metal": [false], "is_stable": [false], "nelements": [3], "nsites": [22], "num_magnetic_sites": [0], "num_unique_magnetic_sites": [0], "theoretical": [true], "total_magnetization": [0.0], "total_magnetization_normalized_formula_units": [0.0], "total_magnetization_normalized_vol": [0.0], "uncorrected_energy_per_atom": [-21.90724], "volume": [280.559], "cbm": [5.4705], "vbm": [2.3548]}