{"includesElement": ["", "Be", "Sb"], "includesElement___series_id": [4, 5], "includesElement__abundance_crust": [2.8, 0.2], "includesElement__atomic_number": [4, 51], "includesElement__atomic_radius": [105.0, 145.0], "includesElement__atomic_radius_rahm": [219.0, 246.0], "includesElement__atomic_volume": [5.0, 18.4], "includesElement__atomic_weight": [9.012183, 121.76], "includesElement__covalent_radius_cordero": [96.0, 139.0], "includesElement__covalent_radius_pyykko": [102.0, 140.0], "includesElement__covalent_radius_pyykko_double": [90.0, 133.0], "includesElement__covalent_radius_pyykko_triple": [85.0, 127.0], "includesElement__density": [1.85, 6.68], "includesElement__dipole_polarizability": [37.74, 43.0], "includesElement__dipole_polarizability_unc": [0.03, 2.0], "includesElement__discovery_year": [1798], "includesElement__electron_affinity": [-2.4, 1.046], "includesElement__electronegativity_allred-rochow": [0.0001874279, 0.0003214286], "includesElement__electronegativity_cottrell-sutton": [0.1382666, 0.212132], "includesElement__electronegativity_ghosh": [0.144986, 0.1918774], "includesElement__electronegativity_gordy": [0.01911765, 0.045], "includesElement__electronegativity_mulliken": [3.461349, 4.827195], "includesElement__electronegativity_nagle": [0.3756148, 0.4880907], "includesElement__electronegativity_pauling": [1.57, 2.05], "includesElement__electronegativity_sanderson": [0.1268473, 0.7762722], "includesElement__en_ghosh": [0.144986, 0.1918774], "includesElement__en_pauling": [1.57, 2.05], "includesElement__evaporation_heat": [309.0, 195.2], "includesElement__fusion_heat": [12.21, 20.08], "includesElement__glawe_number": [77, 91], "includesElement__group_id": [2, 15], "includesElement__heat_of_formation": [324.0, 264.4], "includesElement__is_radioactive": [false], "includesElement__lattice_constant": [2.29, 4.51], "includesElement__mendeleev_number": [75, 96], "includesElement__molar_heat_capacity": [16.443, 25.23], "includesElement__period": [2, 5], "includesElement__pettifor_number": [77, 88], "includesElement__specific_heat_capacity": [1.825, 0.207], "includesElement__vdw_radius": [153.0, 206.0], "includesElement__vdw_radius_alvarez": [198.0, 247.0], "includesElement__vdw_radius_mm3": [223.0, 252.0], "includesElement__vdw_radius_uff": [274.5, 442.0], "includesElement__abundance_sea": [5.6e-06, 0.00024], "includesElement__atomic_weight_uncertainty": [5e-07, 0.001], "includesElement__c6_gb": [214.0, 504.0], "includesElement__covalent_radius_bragg": [115.0, 140.0], "includesElement__electronegativity_allen": [9.323, 11.74], "includesElement__en_allen": [9.323, 11.74], "includesElement__metallic_radius": [89.0, 139.0], "includesElement__metallic_radius_c12": [112.0, 166.0], "includesElement__thermal_conductivity": [201.0, 24.43], "includesElement__vdw_radius_batsanov": [190.0, 220.0], "includesElement__c6": [227.0, 492.0], "includesElement__is_monoisotopic": [true], "includesElement__vdw_radius_truhlar": [153.0, 206.0], "includesElement__vdw_radius_dreiding": [435.0], "formula": ["Be26Sb2"], "spacegroup": ["226"], "thermalConductivity": [7.74314], "icsd": ["834"], "band_gap": [0.0], "density": [2.924903], "density_atomic": [9.688557], "deprecated": [false], "efermi": [5.293446], "energy_above_hull": [0.1497256], "energy_per_atom": [-3.617515], "formation_energy_per_atom": [0.1497256], "is_gap_direct": [false], "is_magnetic": [false], "is_metal": [true], "is_stable": [false], "nelements": [2], "nsites": [28], "num_magnetic_sites": [0], "num_unique_magnetic_sites": [0], "theoretical": [false], "total_magnetization": [0.0001329], "total_magnetization_normalized_formula_units": [6.645e-05], "total_magnetization_normalized_vol": [4.899005e-07], "uncorrected_energy_per_atom": [-3.603801], "volume": [271.2796]}