{"includesElement": ["", "Ag", "O", "Co"], "includesElement___series_id": [8, 1], "includesElement__abundance_crust": [0.075, 461000.0, 25.0], "includesElement__atomic_number": [47, 8, 27], "includesElement__atomic_radius": [160.0, 60.0, 135.0], "includesElement__atomic_radius_rahm": [225.0, 171.0, 233.0], "includesElement__atomic_volume": [10.3, 14.0, 6.7], "includesElement__atomic_weight": [107.8682, 15.999, 58.93319], "includesElement__covalent_radius_cordero": [145.0, 66.0, 138.0], "includesElement__covalent_radius_pyykko": [128.0, 63.0, 111.0], "includesElement__covalent_radius_pyykko_double": [139.0, 57.0, 103.0], "includesElement__covalent_radius_pyykko_triple": [137.0, 53.0, 96.0], "includesElement__density": [10.5, 0.001308, 8.86], "includesElement__dipole_polarizability": [55.0, 5.3], "includesElement__dipole_polarizability_unc": [8.0, 0.2, 4.0], "includesElement__electron_affinity": [1.302, 1.461113, 0.6622565], "includesElement__electronegativity_allred-rochow": [0.0002258301, 0.001146384, 0.0003165327], "includesElement__electronegativity_cottrell-sutton": [0.1700184, 0.2687419, 0.1874437], "includesElement__electronegativity_ghosh": [0.1472165, 0.304575, 0.1432363], "includesElement__electronegativity_gordy": [0.02890625, 0.07222222, 0.03513514], "includesElement__electronegativity_mulliken": [4.439117, 7.539584, 4.271633], "includesElement__electronegativity_nagle": [0.5848035, 1.042218, 0.5469655], "includesElement__electronegativity_pauling": [1.93, 3.44, 1.88], "includesElement__electronegativity_sanderson": [0.9437955, 0.9416494, 0.8832424], "includesElement__en_ghosh": [0.1472165, 0.304575, 0.1432363], "includesElement__en_pauling": [1.93, 3.44, 1.88], "includesElement__evaporation_heat": [254.1, 389.1], "includesElement__fusion_heat": [11.95, 15.48], "includesElement__glawe_number": [67, 97, 70], "includesElement__group_id": [11, 16, 9], "includesElement__heat_of_formation": [284.9, 249.229, 426.7], "includesElement__is_radioactive": [false], "includesElement__lattice_constant": [4.09, 6.83, 2.51], "includesElement__mendeleev_number": [72, 99, 63], "includesElement__molar_heat_capacity": [25.35, 29.378, 24.81], "includesElement__period": [5, 2, 4], "includesElement__pettifor_number": [71, 101, 64], "includesElement__specific_heat_capacity": [0.235, 0.918, 0.421], "includesElement__vdw_radius": [211.0, 152.0, 200.0], "includesElement__vdw_radius_alvarez": [253.0, 150.0, 240.0], "includesElement__vdw_radius_mm3": [243.0, 182.0, 223.0], "includesElement__vdw_radius_uff": [314.8, 350.0, 287.2], "includesElement__abundance_sea": [4e-05, 857000.0, 2e-05], "includesElement__atomic_weight_uncertainty": [0.0002, 4e-06], "includesElement__c6_gb": [341.0, 16.7, 461.0], "includesElement__covalent_radius_bragg": [177.0, 65.0, 137.0], "includesElement__electronegativity_allen": [11.05, 21.36, 10.86], "includesElement__en_allen": [11.05, 21.36, 10.86], "includesElement__metallic_radius": [134.0, 116.0], "includesElement__metallic_radius_c12": [144.0, 125.0], "includesElement__thermal_conductivity": [429.0, 0.027, 100.0], "includesElement__vdw_radius_batsanov": [210.0, 155.0, 200.0], "includesElement__discovery_year": [1774, 1739], "includesElement__c6": [15.6, 408.0], "includesElement__vdw_radius_dreiding": [340.46], "includesElement__gas_basicity": [459.6, 719.8], "includesElement__proton_affinity": [485.2, 742.7], "includesElement__vdw_radius_bondi": [152.0], "includesElement__vdw_radius_rt": [158.0], "includesElement__is_monoisotopic": [true], "formula": ["Ag2Co2O4"], "spacegroup": ["194"], "thermalConductivity": [2.95475], "icsd": ["246157"], "band_gap": [1.332], "density": [7.5783], "density_atomic": [10.89016], "deprecated": [false], "efermi": [2.792838], "energy_above_hull": [0.0], "energy_per_atom": [-5.973685], "formation_energy_per_atom": [-1.003465], "is_gap_direct": [false], "is_magnetic": [false], "is_metal": [false], "is_stable": [true], "nelements": [3], "nsites": [8], "num_magnetic_sites": [0], "num_unique_magnetic_sites": [0], "theoretical": [false], "total_magnetization": [0.0], "total_magnetization_normalized_formula_units": [0.0], "total_magnetization_normalized_vol": [0.0], "uncorrected_energy_per_atom": [-12.6336], "volume": [87.12125], "cbm": [3.9901], "e_electronic": [10.63414], "e_ionic": [5.174037], "e_total": [15.80817], "equilibrium_reaction_energy_per_atom": [-0.1002485], "n": [3.261002], "vbm": [2.6581]}