{"includesElement": ["", "F", "Cl", "Yb"], "includesElement___series_id": [6, 9], "includesElement__abundance_crust": [585.0, 145.0, 3.2], "includesElement__atomic_number": [9, 17, 70], "includesElement__atomic_radius": [50.0, 100.0, 175.0], "includesElement__atomic_radius_rahm": [163.0, 206.0, 277.0], "includesElement__atomic_volume": [17.1, 18.7, 24.8], "includesElement__atomic_weight": [18.9984, 35.45, 173.045], "includesElement__covalent_radius_cordero": [57.0, 102.0, 187.0], "includesElement__covalent_radius_pyykko": [64.0, 99.0, 170.0], "includesElement__covalent_radius_pyykko_double": [59.0, 95.0, 129.0], "includesElement__covalent_radius_pyykko_triple": [53.0, 93.0], "includesElement__density": [0.001553, 0.002898, 6.9], "includesElement__dipole_polarizability": [3.74, 14.6, 139.0], "includesElement__dipole_polarizability_unc": [0.08, 0.1, 6.0], "includesElement__discovery_year": [1886, 1774, 1878], "includesElement__electron_affinity": [3.40119, 3.612725, -0.02], "includesElement__electronegativity_allred-rochow": [0.001269531, 0.0006223855, 9.861592e-05], "includesElement__electronegativity_cottrell-sutton": [0.2850439, 0.248226, 0.1294786], "includesElement__electronegativity_ghosh": [0.344443, 0.263803, 0.22119], "includesElement__electronegativity_gordy": [0.08125, 0.06161616, 0.01676471], "includesElement__electronegativity_mulliken": [10.412, 8.290178, 3.11708], "includesElement__electronegativity_nagle": [1.232373, 0.7826755, 0.4864465], "includesElement__electronegativity_pauling": [3.98, 3.16], "includesElement__electronegativity_sanderson": [1.017681, 0.8123773, 0.5176678], "includesElement__en_ghosh": [0.344443, 0.263803, 0.22119], "includesElement__en_pauling": [3.98, 3.16], "includesElement__evaporation_heat": [6.54, 20.41, 159.0], "includesElement__fusion_heat": [0.51, 6.41, 3.35], "includesElement__glawe_number": [102, 101, 18], "includesElement__group_id": [17], "includesElement__heat_of_formation": [79.335, 121.302, 155.6], "includesElement__is_radioactive": [false], "includesElement__mendeleev_number": [106, 107, 39], "includesElement__molar_heat_capacity": [31.304, 33.949, 26.74], "includesElement__period": [2, 3, 6], "includesElement__pettifor_number": [102, 99, 17], "includesElement__specific_heat_capacity": [0.824, 0.479, 0.155], "includesElement__vdw_radius": [147.0, 175.0, 226.0], "includesElement__vdw_radius_alvarez": [146.0, 182.0, 280.0], "includesElement__vdw_radius_mm3": [171.0, 207.0, 279.0], "includesElement__vdw_radius_uff": [336.4, 394.7, 335.5], "includesElement__abundance_sea": [1.3, 19400.0, 8.2e-07], "includesElement__atomic_weight_uncertainty": [6e-09, 0.01], "includesElement__c6_gb": [10.2, 97.1, 1910.0], "includesElement__covalent_radius_bragg": [67.0, 105.0], "includesElement__electronegativity_allen": [24.8, 16.97], "includesElement__en_allen": [24.8, 16.97], "includesElement__thermal_conductivity": [0.028, 0.009], "includesElement__vdw_radius_batsanov": [150.0, 180.0], "includesElement__c6": [9.52, 94.6], "includesElement__is_monoisotopic": [true], "includesElement__vdw_radius_dreiding": [347.2, 395.03], "includesElement__gas_basicity": [315.1, 490.1], "includesElement__proton_affinity": [340.1, 513.6], "includesElement__vdw_radius_bondi": [147.0, 175.0], "includesElement__vdw_radius_rt": [146.0, 176.0], "includesElement__lattice_constant": [6.24, 5.49], "includesElement__metallic_radius_c12": [91.0], "formula": ["Cl2F2Yb2"], "spacegroup": ["129"], "thermalConductivity": [2.16643], "icsd": ["35390"], "band_gap": [6.0551], "density": [7.595058], "density_atomic": [16.57913], "deprecated": [false], "efermi": [0.8080168], "homogeneous_poisson": [0.26], "is_gap_direct": [false], "is_magnetic": [false], "is_metal": [false], "is_stable": [false], "nelements": [3], "nsites": [6], "num_magnetic_sites": [0], "num_unique_magnetic_sites": [0], "theoretical": [false], "total_magnetization": [0.0], "total_magnetization_normalized_formula_units": [0.0], "total_magnetization_normalized_vol": [0.0], "universal_anisotropy": [1.988], "volume": [99.47478], "cbm": [6.7711], "vbm": [0.716]}