{"includesElement": ["", "O", "Er", "Hf"], "includesElement___series_id": [1, 9, 8], "includesElement__abundance_crust": [461000.0, 3.5, 3.0], "includesElement__atomic_number": [8, 68, 72], "includesElement__atomic_radius": [60.0, 175.0, 155.0], "includesElement__atomic_radius_rahm": [171.0, 272.0, 264.0], "includesElement__atomic_volume": [14.0, 18.4, 13.6], "includesElement__atomic_weight": [15.999, 167.259, 178.49], "includesElement__covalent_radius_cordero": [66.0, 189.0, 175.0], "includesElement__covalent_radius_pyykko": [63.0, 165.0, 152.0], "includesElement__covalent_radius_pyykko_double": [57.0, 133.0, 128.0], "includesElement__covalent_radius_pyykko_triple": [53.0, 122.0], "includesElement__density": [0.001308, 9.07, 13.3], "includesElement__dipole_polarizability": [5.3, 150.0, 103.0], "includesElement__dipole_polarizability_unc": [0.2, 10.0, 6.0], "includesElement__discovery_year": [1774, 1843, 1923], "includesElement__electron_affinity": [1.461113, 0.014], "includesElement__electronegativity_allred-rochow": [0.001146384, 0.0001046832, 0.00013634], "includesElement__electronegativity_cottrell-sutton": [0.2687419, 0.1314257, 0.1439572], "includesElement__electronegativity_ghosh": [0.304575, 0.212261, 0.229987], "includesElement__electronegativity_gordy": [0.07222222, 0.01727273, 0.02072368], "includesElement__electronegativity_mulliken": [7.539584, 3.05385, 3.419535], "includesElement__electronegativity_nagle": [1.042218, 0.4536061, 0.3386421], "includesElement__electronegativity_pauling": [3.44, 1.24, 1.3], "includesElement__electronegativity_sanderson": [0.9416494, 0.5576573, 0.7352125], "includesElement__en_ghosh": [0.304575, 0.212261, 0.229987], "includesElement__en_pauling": [3.44, 1.24, 1.3], "includesElement__glawe_number": [97, 22, 50], "includesElement__group_id": [16, 4], "includesElement__heat_of_formation": [249.229, 316.4, 618.4], "includesElement__is_radioactive": [false], "includesElement__lattice_constant": [6.83, 3.56, 3.2], "includesElement__mendeleev_number": [99, 35, 45], "includesElement__molar_heat_capacity": [29.378, 28.12, 25.73], "includesElement__period": [2, 6], "includesElement__pettifor_number": [101, 23, 50], "includesElement__specific_heat_capacity": [0.918, 0.168, 0.144], "includesElement__vdw_radius": [152.0, 229.0, 223.0], "includesElement__vdw_radius_alvarez": [150.0, 283.0, 263.0], "includesElement__vdw_radius_mm3": [182.0, 267.0, 253.0], "includesElement__vdw_radius_uff": [350.0, 339.1, 314.1], "includesElement__abundance_sea": [857000.0, 8.7e-07, 7e-06], "includesElement__c6_gb": [16.7, 2150.0, 1040.0], "includesElement__covalent_radius_bragg": [65.0], "includesElement__electronegativity_allen": [21.36, 6.83], "includesElement__en_allen": [21.36, 6.83], "includesElement__thermal_conductivity": [0.027, 23.0], "includesElement__vdw_radius_batsanov": [155.0, 225.0], "includesElement__c6": [15.6], "includesElement__vdw_radius_dreiding": [340.46], "includesElement__gas_basicity": [459.6], "includesElement__proton_affinity": [485.2], "includesElement__vdw_radius_bondi": [152.0], "includesElement__vdw_radius_rt": [158.0], "includesElement__evaporation_heat": [317.0, 575.0], "includesElement__atomic_weight_uncertainty": [0.003, 0.02], "includesElement__fusion_heat": [25.1], "includesElement__metallic_radius": [144.0], "includesElement__metallic_radius_c12": [159.0], "formula": ["Er4Hf4O14"], "spacegroup": ["227"], "thermalConductivity": [5.98782], "icsd": ["162006"], "band_gap": [3.0001], "density": [9.343531], "density_atomic": [12.98159], "deprecated": [false], "efermi": [2.477688], "energy_above_hull": [0.0266544], "energy_per_atom": [-22.09227], "formation_energy_per_atom": [-3.92152], "is_gap_direct": [false], "is_magnetic": [false], "is_metal": [false], "is_stable": [false], "nelements": [3], "nsites": [22], "num_magnetic_sites": [0], "num_unique_magnetic_sites": [0], "theoretical": [true], "total_magnetization": [0.0028059], "total_magnetization_normalized_formula_units": [0.00140295], "total_magnetization_normalized_vol": [9.824752e-06], "uncorrected_energy_per_atom": [-9.362516], "volume": [285.595], "cbm": [5.3805], "vbm": [2.3804]}