{"includesElement": ["", "Na", "O", "Nb"], "includesElement___series_id": [3, 1, 8], "includesElement__abundance_crust": [23600.0, 461000.0, 20.0], "includesElement__atomic_number": [11, 8, 41], "includesElement__atomic_radius": [180.0, 60.0, 145.0], "includesElement__atomic_radius_rahm": [225.0, 171.0, 251.0], "includesElement__atomic_volume": [23.7, 14.0, 10.8], "includesElement__atomic_weight": [22.98977, 15.999, 92.90637], "includesElement__covalent_radius_cordero": [166.0, 66.0, 164.0], "includesElement__covalent_radius_pyykko": [155.0, 63.0, 147.0], "includesElement__covalent_radius_pyykko_double": [160.0, 57.0, 125.0], "includesElement__density": [0.97, 0.001308, 8.57], "includesElement__dipole_polarizability": [162.7, 5.3, 98.0], "includesElement__dipole_polarizability_unc": [0.5, 0.2, 8.0], "includesElement__discovery_year": [1807, 1774, 1801], "includesElement__electron_affinity": [0.547926, 1.461113, 0.917406], "includesElement__electronegativity_allred-rochow": [9.157128e-05, 0.001146384, 0.0001295756], "includesElement__electronegativity_cottrell-sutton": [0.1191367, 0.2687419, 0.1380131], "includesElement__electronegativity_ghosh": [0.093214, 0.304575, 0.1280782], "includesElement__electronegativity_gordy": [0.01419355, 0.07222222, 0.01904762], "includesElement__electronegativity_mulliken": [2.843501, 7.539584, 3.838128], "includesElement__electronegativity_nagle": [0.1831769, 1.042218, 0.3708924], "includesElement__electronegativity_pauling": [0.93, 3.44, 1.6], "includesElement__electronegativity_sanderson": [0.09459764, 0.9416494, 0.5561695], "includesElement__en_ghosh": [0.093214, 0.304575, 0.1280782], "includesElement__en_pauling": [0.93, 3.44, 1.6], "includesElement__evaporation_heat": [97.9, 680.0], "includesElement__fusion_heat": [2.64, 26.8], "includesElement__glawe_number": [11, 97, 53], "includesElement__group_id": [1, 16, 5], "includesElement__heat_of_formation": [107.5, 249.229, 733.0], "includesElement__is_radioactive": [false], "includesElement__lattice_constant": [4.23, 6.83, 3.3], "includesElement__mendeleev_number": [2, 99, 48], "includesElement__molar_heat_capacity": [28.23, 29.378, 24.6], "includesElement__period": [3, 2, 5], "includesElement__pettifor_number": [11, 101, 52], "includesElement__specific_heat_capacity": [1.228, 0.918, 0.265], "includesElement__vdw_radius": [227.0, 152.0, 218.0], "includesElement__vdw_radius_alvarez": [250.0, 150.0, 256.0], "includesElement__vdw_radius_mm3": [270.0, 182.0, 243.0], "includesElement__vdw_radius_uff": [298.3, 350.0, 316.5], "includesElement__abundance_sea": [10800.0, 857000.0, 1e-05], "includesElement__atomic_weight_uncertainty": [2e-08, 2e-05], "includesElement__c6_gb": [1570.0, 16.7, 1140.0], "includesElement__covalent_radius_bragg": [177.0, 65.0], "includesElement__electronegativity_allen": [5.14, 21.36, 8.34], "includesElement__en_allen": [5.14, 21.36, 8.34], "includesElement__metallic_radius": [157.0, 134.0], "includesElement__metallic_radius_c12": [190.0, 146.0], "includesElement__thermal_conductivity": [142.0, 0.027, 53.7], "includesElement__vdw_radius_batsanov": [240.0, 155.0, 215.0], "includesElement__c6": [1518.0, 15.6], "includesElement__is_monoisotopic": [true], "includesElement__vdw_radius_bondi": [227.0, 152.0], "includesElement__covalent_radius_pyykko_triple": [53.0, 116.0], "includesElement__vdw_radius_dreiding": [340.46], "includesElement__gas_basicity": [459.6], "includesElement__proton_affinity": [485.2], "includesElement__vdw_radius_rt": [158.0], "formula": ["Na1Nb1O3"], "spacegroup": ["221"], "thermalConductivity": [19.219], "icsd": ["28578"], "band_gap": [1.5249], "density": [4.222757], "density_atomic": [12.88983], "deprecated": [false], "efermi": [1.448634], "energy_above_hull": [0.04433902], "energy_per_atom": [-8.057866], "formation_energy_per_atom": [-2.797902], "homogeneous_poisson": [0.262], "is_gap_direct": [false], "is_magnetic": [false], "is_metal": [false], "is_stable": [false], "nelements": [3], "nsites": [5], "num_magnetic_sites": [0], "num_unique_magnetic_sites": [0], "theoretical": [false], "total_magnetization": [0.0005892], "total_magnetization_normalized_formula_units": [0.0005892], "total_magnetization_normalized_vol": [9.142094e-06], "uncorrected_energy_per_atom": [-7.645666], "universal_anisotropy": [0.912], "volume": [64.44913], "cbm": [2.9042], "vbm": [1.3793]}