{"includesElement": ["", "Na", "O", "Ta"], "includesElement___series_id": [3, 1, 8], "includesElement__abundance_crust": [23600.0, 461000.0, 2.0], "includesElement__atomic_number": [11, 8, 73], "includesElement__atomic_radius": [180.0, 60.0, 145.0], "includesElement__atomic_radius_rahm": [225.0, 171.0, 258.0], "includesElement__atomic_volume": [23.7, 14.0, 10.9], "includesElement__atomic_weight": [22.98977, 15.999, 180.9479], "includesElement__covalent_radius_cordero": [166.0, 66.0, 170.0], "includesElement__covalent_radius_pyykko": [155.0, 63.0, 146.0], "includesElement__covalent_radius_pyykko_double": [160.0, 57.0, 126.0], "includesElement__density": [0.97, 0.001308, 16.4], "includesElement__dipole_polarizability": [162.7, 5.3, 74.0], "includesElement__dipole_polarizability_unc": [0.5, 0.2, 20.0], "includesElement__discovery_year": [1807, 1774, 1802], "includesElement__electron_affinity": [0.547926, 1.461113, 0.322], "includesElement__electronegativity_allred-rochow": [9.157128e-05, 0.001146384, 0.0001548133], "includesElement__electronegativity_cottrell-sutton": [0.1191367, 0.2687419, 0.1503421], "includesElement__electronegativity_ghosh": [0.093214, 0.304575, 0.234581], "includesElement__electronegativity_gordy": [0.01419355, 0.07222222, 0.02260274], "includesElement__electronegativity_mulliken": [2.843501, 7.539584, 3.935785], "includesElement__electronegativity_nagle": [0.1831769, 1.042218, 0.4072985], "includesElement__electronegativity_pauling": [0.93, 3.44, 1.5], "includesElement__electronegativity_sanderson": [0.09459764, 0.9416494, 0.8358832], "includesElement__en_ghosh": [0.093214, 0.304575, 0.234581], "includesElement__en_pauling": [0.93, 3.44, 1.5], "includesElement__evaporation_heat": [97.9, 758.0], "includesElement__fusion_heat": [2.64, 24.7], "includesElement__glawe_number": [11, 97, 52], "includesElement__group_id": [1, 16, 5], "includesElement__heat_of_formation": [107.5, 249.229, 782.0], "includesElement__is_radioactive": [false], "includesElement__lattice_constant": [4.23, 6.83, 3.31], "includesElement__mendeleev_number": [2, 99, 49], "includesElement__molar_heat_capacity": [28.23, 29.378, 25.36], "includesElement__period": [3, 2, 6], "includesElement__pettifor_number": [11, 101, 53], "includesElement__specific_heat_capacity": [1.228, 0.918, 0.14], "includesElement__vdw_radius": [227.0, 152.0, 222.0], "includesElement__vdw_radius_alvarez": [250.0, 150.0, 253.0], "includesElement__vdw_radius_mm3": [270.0, 182.0, 243.0], "includesElement__vdw_radius_uff": [298.3, 350.0, 317.0], "includesElement__abundance_sea": [10800.0, 857000.0, 2e-06], "includesElement__atomic_weight_uncertainty": [2e-08, 2e-05], "includesElement__c6_gb": [1570.0, 16.7, 887.0], "includesElement__covalent_radius_bragg": [177.0, 65.0], "includesElement__electronegativity_allen": [5.14, 21.36, 7.93], "includesElement__en_allen": [5.14, 21.36, 7.93], "includesElement__metallic_radius": [157.0, 134.0], "includesElement__metallic_radius_c12": [190.0, 146.0], "includesElement__thermal_conductivity": [142.0, 0.027, 57.5], "includesElement__vdw_radius_batsanov": [240.0, 155.0, 220.0], "includesElement__c6": [1518.0, 15.6], "includesElement__is_monoisotopic": [true], "includesElement__vdw_radius_bondi": [227.0, 152.0], "includesElement__covalent_radius_pyykko_triple": [53.0, 119.0], "includesElement__vdw_radius_dreiding": [340.46], "includesElement__gas_basicity": [459.6], "includesElement__proton_affinity": [485.2], "includesElement__vdw_radius_rt": [158.0], "formula": ["Na1O3Ta1"], "spacegroup": ["221"], "thermalConductivity": [17.7321], "icsd": ["28612"], "band_gap": [2.2603], "density": [6.799149], "density_atomic": [12.30593], "deprecated": [false], "efermi": [1.872781], "energy_above_hull": [0.02775413], "energy_per_atom": [-16.89602], "formation_energy_per_atom": [-2.888424], "homogeneous_poisson": [0.266], "is_gap_direct": [false], "is_magnetic": [false], "is_metal": [false], "is_stable": [false], "nelements": [3], "nsites": [5], "num_magnetic_sites": [0], "num_unique_magnetic_sites": [0], "theoretical": [false], "total_magnetization": [0.0], "total_magnetization_normalized_formula_units": [0.0], "total_magnetization_normalized_vol": [0.0], "uncorrected_energy_per_atom": [-16.89602], "universal_anisotropy": [0.94], "volume": [61.52965], "cbm": [4.0058], "e_electronic": [5.206058], "e_ionic": [47.22166], "e_total": [52.42771], "n": [2.281679], "vbm": [1.7455]}