{"includesElement": ["", "Ba", "O", "Co"], "includesElement___series_id": [4, 1, 8], "includesElement__abundance_crust": [425.0, 461000.0, 25.0], "includesElement__atomic_number": [56, 8, 27], "includesElement__atomic_radius": [215.0, 60.0, 135.0], "includesElement__atomic_radius_rahm": [293.0, 171.0, 233.0], "includesElement__atomic_volume": [39.0, 14.0, 6.7], "includesElement__atomic_weight": [137.327, 15.999, 58.93319], "includesElement__covalent_radius_cordero": [215.0, 66.0, 138.0], "includesElement__covalent_radius_pyykko": [196.0, 63.0, 111.0], "includesElement__covalent_radius_pyykko_double": [161.0, 57.0, 103.0], "includesElement__covalent_radius_pyykko_triple": [149.0, 53.0, 96.0], "includesElement__density": [3.62, 0.001308, 8.86], "includesElement__dipole_polarizability": [272.0, 5.3, 55.0], "includesElement__dipole_polarizability_unc": [10.0, 0.2, 4.0], "includesElement__discovery_year": [1808, 1774, 1739], "includesElement__electron_affinity": [0.14462, 1.461113, 0.6622565], "includesElement__electronegativity_allred-rochow": [7.418784e-05, 0.001146384, 0.0003165327], "includesElement__electronegativity_cottrell-sutton": [0.1205853, 0.2687419, 0.1874437], "includesElement__electronegativity_ghosh": [0.1586786, 0.304575, 0.1432363], "includesElement__electronegativity_gordy": [0.01454082, 0.07222222, 0.03513514], "includesElement__electronegativity_mulliken": [2.678142, 7.539584, 4.271633], "includesElement__electronegativity_nagle": [0.1944556, 1.042218, 0.5469655], "includesElement__electronegativity_pauling": [0.89, 3.44, 1.88], "includesElement__electronegativity_sanderson": [0.3032951, 0.9416494, 0.8832424], "includesElement__en_ghosh": [0.1586786, 0.304575, 0.1432363], "includesElement__en_pauling": [0.89, 3.44, 1.88], "includesElement__evaporation_heat": [142.0, 389.1], "includesElement__fusion_heat": [7.66, 15.48], "includesElement__glawe_number": [14, 97, 70], "includesElement__group_id": [2, 16, 9], "includesElement__heat_of_formation": [179.1, 249.229, 426.7], "includesElement__is_radioactive": [false], "includesElement__lattice_constant": [5.02, 6.83, 2.51], "includesElement__mendeleev_number": [9, 99, 63], "includesElement__molar_heat_capacity": [28.07, 29.378, 24.81], "includesElement__period": [6, 2, 4], "includesElement__pettifor_number": [14, 101, 64], "includesElement__specific_heat_capacity": [0.204, 0.918, 0.421], "includesElement__vdw_radius": [268.0, 152.0, 200.0], "includesElement__vdw_radius_alvarez": [303.0, 150.0, 240.0], "includesElement__vdw_radius_mm3": [307.0, 182.0, 223.0], "includesElement__vdw_radius_uff": [370.3, 350.0, 287.2], "includesElement__abundance_sea": [0.013, 857000.0, 2e-05], "includesElement__atomic_weight_uncertainty": [0.007, 4e-06], "includesElement__c6_gb": [5540.0, 16.7, 461.0], "includesElement__covalent_radius_bragg": [210.0, 65.0, 137.0], "includesElement__electronegativity_allen": [5.211, 21.36, 10.86], "includesElement__en_allen": [5.211, 21.36, 10.86], "includesElement__metallic_radius": [198.0, 116.0], "includesElement__metallic_radius_c12": [222.0, 125.0], "includesElement__vdw_radius_batsanov": [270.0, 155.0, 200.0], "includesElement__vdw_radius_truhlar": [268.0], "includesElement__thermal_conductivity": [0.027, 100.0], "includesElement__c6": [15.6, 408.0], "includesElement__vdw_radius_dreiding": [340.46], "includesElement__gas_basicity": [459.6, 719.8], "includesElement__proton_affinity": [485.2, 742.7], "includesElement__vdw_radius_bondi": [152.0], "includesElement__vdw_radius_rt": [158.0], "includesElement__is_monoisotopic": [true], "formula": ["Ba3Co3O6"], "spacegroup": ["152"], "thermalConductivity": [1.99198], "icsd": ["25813"], "band_gap": [0.3967], "density": [5.615032], "density_atomic": [16.87582], "deprecated": [false], "efermi": [2.85091], "energy_above_hull": [0.0], "energy_per_atom": [-6.812026], "formation_energy_per_atom": [-2.072796], "is_gap_direct": [true], "is_magnetic": [true], "is_metal": [false], "is_stable": [true], "nelements": [3], "nsites": [12], "num_magnetic_sites": [3], "num_unique_magnetic_sites": [1], "theoretical": [false], "total_magnetization": [9.0], "total_magnetization_normalized_formula_units": [3.0], "total_magnetization_normalized_vol": [0.0444423], "uncorrected_energy_per_atom": [-14.86714], "volume": [202.5098], "cbm": [3.2394], "e_electronic": [4.670672], "e_ionic": [11.12266], "e_total": [15.79333], "equilibrium_reaction_energy_per_atom": [-0.02721089], "n": [2.161174], "vbm": [2.8427], "e_ij_max": [1.504328]}