{"includesElement": ["", "Ba", "N", "Mn"], "includesElement___series_id": [4, 1, 8], "includesElement__abundance_crust": [425.0, 19.0, 950.0], "includesElement__atomic_number": [56, 7, 25], "includesElement__atomic_radius": [215.0, 65.0, 140.0], "includesElement__atomic_radius_rahm": [293.0, 179.0, 242.0], "includesElement__atomic_volume": [39.0, 17.3, 7.39], "includesElement__atomic_weight": [137.327, 14.007, 54.93804], "includesElement__covalent_radius_cordero": [215.0, 71.0, 150.0], "includesElement__covalent_radius_pyykko": [196.0, 71.0, 119.0], "includesElement__covalent_radius_pyykko_double": [161.0, 60.0, 105.0], "includesElement__covalent_radius_pyykko_triple": [149.0, 54.0, 103.0], "includesElement__density": [3.62, 0.001145, 7.3], "includesElement__dipole_polarizability": [272.0, 7.4, 68.0], "includesElement__dipole_polarizability_unc": [10.0, 0.2, 9.0], "includesElement__discovery_year": [1808, 1772, 1774], "includesElement__electron_affinity": [0.14462, -1.4], "includesElement__electronegativity_allred-rochow": [7.418784e-05, 0.000773656, 0.0002542193], "includesElement__electronegativity_cottrell-sutton": [0.1205853, 0.2343706, 0.1739313], "includesElement__electronegativity_ghosh": [0.1586786, 0.26493, 0.1352844], "includesElement__electronegativity_gordy": [0.01454082, 0.05492958, 0.0302521], "includesElement__electronegativity_mulliken": [2.678142, 6.567065, 3.717009], "includesElement__electronegativity_nagle": [0.1944556, 0.8774979, 0.4686656], "includesElement__electronegativity_pauling": [0.89, 3.04, 1.55], "includesElement__electronegativity_sanderson": [0.3032951, 0.577482, 0.6707264], "includesElement__en_ghosh": [0.1586786, 0.26493, 0.1352844], "includesElement__en_pauling": [0.89, 3.04, 1.55], "includesElement__evaporation_heat": [142.0, 221.0], "includesElement__fusion_heat": [7.66, 13.4], "includesElement__glawe_number": [14, 88, 72], "includesElement__group_id": [2, 15, 7], "includesElement__heat_of_formation": [179.1, 472.44, 283.3], "includesElement__is_radioactive": [false], "includesElement__lattice_constant": [5.02, 4.039, 8.89], "includesElement__mendeleev_number": [9, 93, 55], "includesElement__molar_heat_capacity": [28.07, 29.124, 26.32], "includesElement__period": [6, 2, 4], "includesElement__pettifor_number": [14, 100, 60], "includesElement__specific_heat_capacity": [0.204, 1.04, 0.479], "includesElement__vdw_radius": [268.0, 155.0, 205.0], "includesElement__vdw_radius_alvarez": [303.0, 166.0, 245.0], "includesElement__vdw_radius_mm3": [307.0, 193.0, 224.0], "includesElement__vdw_radius_uff": [370.3, 366.0, 296.1], "includesElement__abundance_sea": [0.013, 0.5, 0.0002], "includesElement__atomic_weight_uncertainty": [0.007, 3e-06], "includesElement__c6_gb": [5540.0, 25.7, 635.0], "includesElement__covalent_radius_bragg": [210.0, 65.0, 147.0], "includesElement__electronegativity_allen": [5.211, 18.13, 10.34], "includesElement__en_allen": [5.211, 18.13, 10.34], "includesElement__metallic_radius": [198.0, 118.0], "includesElement__metallic_radius_c12": [222.0, 53.0, 127.0], "includesElement__vdw_radius_batsanov": [270.0, 160.0, 205.0], "includesElement__vdw_radius_truhlar": [268.0], "includesElement__thermal_conductivity": [0.026], "includesElement__c6": [24.2, 552.0], "includesElement__vdw_radius_dreiding": [366.21], "includesElement__gas_basicity": [318.7, 774.4], "includesElement__proton_affinity": [342.2, 797.3], "includesElement__vdw_radius_bondi": [155.0], "includesElement__vdw_radius_rt": [164.0], "includesElement__is_monoisotopic": [true], "formula": ["Ba6Mn2N6"], "spacegroup": ["176"], "thermalConductivity": [0.460238], "icsd": ["80771"], "band_gap": [0.0], "density": [5.242098], "density_atomic": [23.03095], "deprecated": [false], "efermi": [3.575125], "energy_above_hull": [0.0], "energy_per_atom": [-6.515977], "formation_energy_per_atom": [-0.811152], "homogeneous_poisson": [0.243], "is_gap_direct": [false], "is_magnetic": [true], "is_metal": [true], "is_stable": [true], "nelements": [3], "nsites": [14], "num_magnetic_sites": [2], "num_unique_magnetic_sites": [1], "theoretical": [false], "total_magnetization": [1.689383], "total_magnetization_normalized_formula_units": [0.8446913], "total_magnetization_normalized_vol": [0.005239479], "uncorrected_energy_per_atom": [-18.15524], "universal_anisotropy": [0.942], "volume": [322.4333], "equilibrium_reaction_energy_per_atom": [-0.1022437]}