{"includesElement": ["", "Yb", "Rh"], "includesElement___series_id": [9, 8], "includesElement__abundance_crust": [3.2, 0.001], "includesElement__atomic_number": [70, 45], "includesElement__atomic_radius": [175.0, 135.0], "includesElement__atomic_radius_rahm": [277.0, 233.0], "includesElement__atomic_volume": [24.8, 8.3], "includesElement__atomic_weight": [173.045, 102.9055], "includesElement__covalent_radius_cordero": [187.0, 142.0], "includesElement__covalent_radius_pyykko": [170.0, 125.0], "includesElement__covalent_radius_pyykko_double": [129.0, 110.0], "includesElement__density": [6.9, 12.4], "includesElement__dipole_polarizability": [139.0, 66.0], "includesElement__dipole_polarizability_unc": [6.0, 10.0], "includesElement__discovery_year": [1878, 1803], "includesElement__electron_affinity": [-0.02, 1.137], "includesElement__electronegativity_allred-rochow": [9.861592e-05, 0.0002176], "includesElement__electronegativity_cottrell-sutton": [0.1294786, 0.1649242], "includesElement__electronegativity_ghosh": [0.22119, 0.1408379], "includesElement__electronegativity_gordy": [0.01676471, 0.0272], "includesElement__electronegativity_mulliken": [3.11708, 4.29795], "includesElement__electronegativity_nagle": [0.4864465, 0.5147142], "includesElement__electronegativity_sanderson": [0.5176678, 0.9761915], "includesElement__en_ghosh": [0.22119, 0.1408379], "includesElement__evaporation_heat": [159.0, 494.0], "includesElement__fusion_heat": [3.35, 21.8], "includesElement__glawe_number": [18, 63], "includesElement__heat_of_formation": [155.6, 556.0], "includesElement__is_radioactive": [false], "includesElement__lattice_constant": [5.49, 3.8], "includesElement__mendeleev_number": [39, 64], "includesElement__molar_heat_capacity": [26.74, 24.98], "includesElement__period": [6, 5], "includesElement__pettifor_number": [17, 66], "includesElement__specific_heat_capacity": [0.155, 0.243], "includesElement__vdw_radius": [226.0, 210.0], "includesElement__vdw_radius_alvarez": [280.0, 244.0], "includesElement__vdw_radius_mm3": [279.0, 234.0], "includesElement__vdw_radius_uff": [335.5, 292.9], "includesElement__abundance_sea": [8.2e-07], "includesElement__atomic_weight_uncertainty": [0.01, 2e-05], "includesElement__c6_gb": [1910.0, 708.0], "includesElement__covalent_radius_pyykko_triple": [106.0], "includesElement__electronegativity_pauling": [2.28], "includesElement__en_pauling": [2.28], "includesElement__group_id": [9], "includesElement__electronegativity_allen": [9.259], "includesElement__en_allen": [9.259], "includesElement__metallic_radius": [125.0], "includesElement__metallic_radius_c12": [134.0], "includesElement__thermal_conductivity": [150.0], "includesElement__vdw_radius_batsanov": [200.0], "includesElement__is_monoisotopic": [true], "includesElement__gas_basicity": [745.4], "includesElement__proton_affinity": [768.0], "formula": ["Rh1Yb1"], "spacegroup": ["221"], "thermalConductivity": [4.84541], "icsd": ["108726"], "band_gap": [0.0], "density": [12.51302], "density_atomic": [18.30965], "deprecated": [false], "efermi": [3.878926], "homogeneous_poisson": [0.319], "is_gap_direct": [false], "is_magnetic": [false], "is_metal": [true], "is_stable": [false], "nelements": [2], "nsites": [2], "num_magnetic_sites": [0], "num_unique_magnetic_sites": [0], "theoretical": [false], "total_magnetization": [0.0018427], "total_magnetization_normalized_formula_units": [0.0018427], "total_magnetization_normalized_vol": [5.032045e-05], "universal_anisotropy": [0.065], "volume": [36.61931]}