{"includesElement": ["", "Dy", "Te"], "includesElement___series_id": [9, 5], "includesElement__abundance_crust": [5.2, 0.001], "includesElement__atomic_number": [66, 52], "includesElement__atomic_radius": [175.0, 140.0], "includesElement__atomic_radius_rahm": [275.0, 242.0], "includesElement__atomic_volume": [19.0, 20.5], "includesElement__atomic_weight": [162.5, 127.6], "includesElement__covalent_radius_cordero": [192.0, 138.0], "includesElement__covalent_radius_pyykko": [167.0, 136.0], "includesElement__covalent_radius_pyykko_double": [133.0, 128.0], "includesElement__density": [8.55, 6.232], "includesElement__dipole_polarizability": [163.0, 38.0], "includesElement__dipole_polarizability_unc": [15.0, 4.0], "includesElement__discovery_year": [1886, 1782], "includesElement__electron_affinity": [0.352, 1.970876], "includesElement__electronegativity_allred-rochow": [0.0001021908, 0.0003757569], "includesElement__electronegativity_cottrell-sutton": [0.1306364, 0.2260596], "includesElement__electronegativity_ghosh": [0.20333, 0.2056992], "includesElement__electronegativity_gordy": [0.01706587, 0.05110294], "includesElement__electronegativity_mulliken": [3.145525, 5.490268], "includesElement__electronegativity_nagle": [0.4191131, 0.5404919], "includesElement__electronegativity_pauling": [1.22, 2.1], "includesElement__electronegativity_sanderson": [0.5297338, 0.8622506], "includesElement__en_ghosh": [0.20333, 0.2056992], "includesElement__en_pauling": [1.22, 2.1], "includesElement__evaporation_heat": [291.0, 49.8], "includesElement__glawe_number": [24, 94], "includesElement__heat_of_formation": [290.4, 196.6], "includesElement__is_radioactive": [false], "includesElement__lattice_constant": [3.59, 4.45], "includesElement__mendeleev_number": [31, 102], "includesElement__molar_heat_capacity": [28.16, 25.73], "includesElement__period": [6, 5], "includesElement__pettifor_number": [25, 92], "includesElement__specific_heat_capacity": [0.173, 0.202], "includesElement__vdw_radius": [231.0, 206.0], "includesElement__vdw_radius_alvarez": [287.0, 199.0], "includesElement__vdw_radius_mm3": [290.0, 244.0], "includesElement__vdw_radius_uff": [342.8, 447.0], "includesElement__abundance_sea": [9.1e-07], "includesElement__atomic_weight_uncertainty": [0.001, 0.03], "includesElement__c6_gb": [2430.0, 471.0], "includesElement__thermal_conductivity": [10.7, 14.3], "includesElement__covalent_radius_pyykko_triple": [121.0], "includesElement__fusion_heat": [17.91], "includesElement__group_id": [16], "includesElement__covalent_radius_bragg": [133.0], "includesElement__electronegativity_allen": [12.76], "includesElement__en_allen": [12.76], "includesElement__metallic_radius": [137.0], "includesElement__metallic_radius_c12": [160.0], "includesElement__vdw_radius_batsanov": [210.0], "includesElement__c6": [445.0], "includesElement__vdw_radius_dreiding": [423.0], "includesElement__vdw_radius_bondi": [206.0], "formula": ["Dy1Te1"], "spacegroup": ["225"], "thermalConductivity": [3.8945], "icsd": ["43640"], "band_gap": [0.0], "density": [8.321903], "density_atomic": [28.94304], "deprecated": [false], "efermi": [6.52078], "energy_above_hull": [0.0], "energy_per_atom": [-30.19456], "formation_energy_per_atom": [-1.495049], "homogeneous_poisson": [0.351], "is_gap_direct": [false], "is_magnetic": [false], "is_metal": [true], "is_stable": [true], "nelements": [2], "nsites": [2], "num_magnetic_sites": [0], "num_unique_magnetic_sites": [0], "theoretical": [false], "total_magnetization": [2e-06], "total_magnetization_normalized_formula_units": [2e-06], "total_magnetization_normalized_vol": [3.455062e-08], "uncorrected_energy_per_atom": [-30.19456], "universal_anisotropy": [13.072], "volume": [57.88609], "equilibrium_reaction_energy_per_atom": [-0.05877985]}