{"includesElement": ["", "Ba", "Cl"], "includesElement___series_id": [4, 6], "includesElement__abundance_crust": [425.0, 145.0], "includesElement__atomic_number": [56, 17], "includesElement__atomic_radius": [215.0, 100.0], "includesElement__atomic_radius_rahm": [293.0, 206.0], "includesElement__atomic_volume": [39.0, 18.7], "includesElement__atomic_weight": [137.327, 35.45], "includesElement__covalent_radius_cordero": [215.0, 102.0], "includesElement__covalent_radius_pyykko": [196.0, 99.0], "includesElement__covalent_radius_pyykko_double": [161.0, 95.0], "includesElement__covalent_radius_pyykko_triple": [149.0, 93.0], "includesElement__density": [3.62, 0.002898], "includesElement__dipole_polarizability": [272.0, 14.6], "includesElement__dipole_polarizability_unc": [10.0, 0.1], "includesElement__discovery_year": [1808, 1774], "includesElement__electron_affinity": [0.14462, 3.612725], "includesElement__electronegativity_allred-rochow": [7.418784e-05, 0.0006223855], "includesElement__electronegativity_cottrell-sutton": [0.1205853, 0.248226], "includesElement__electronegativity_ghosh": [0.1586786, 0.263803], "includesElement__electronegativity_gordy": [0.01454082, 0.06161616], "includesElement__electronegativity_mulliken": [2.678142, 8.290178], "includesElement__electronegativity_nagle": [0.1944556, 0.7826755], "includesElement__electronegativity_pauling": [0.89, 3.16], "includesElement__electronegativity_sanderson": [0.3032951, 0.8123773], "includesElement__en_ghosh": [0.1586786, 0.263803], "includesElement__en_pauling": [0.89, 3.16], "includesElement__evaporation_heat": [142.0, 20.41], "includesElement__fusion_heat": [7.66, 6.41], "includesElement__glawe_number": [14, 101], "includesElement__group_id": [2, 17], "includesElement__heat_of_formation": [179.1, 121.302], "includesElement__is_radioactive": [false], "includesElement__lattice_constant": [5.02, 6.24], "includesElement__mendeleev_number": [9, 107], "includesElement__molar_heat_capacity": [28.07, 33.949], "includesElement__period": [6, 3], "includesElement__pettifor_number": [14, 99], "includesElement__specific_heat_capacity": [0.204, 0.479], "includesElement__vdw_radius": [268.0, 175.0], "includesElement__vdw_radius_alvarez": [303.0, 182.0], "includesElement__vdw_radius_mm3": [307.0, 207.0], "includesElement__vdw_radius_uff": [370.3, 394.7], "includesElement__abundance_sea": [0.013, 19400.0], "includesElement__atomic_weight_uncertainty": [0.007], "includesElement__c6_gb": [5540.0, 97.1], "includesElement__covalent_radius_bragg": [210.0, 105.0], "includesElement__electronegativity_allen": [5.211, 16.97], "includesElement__en_allen": [5.211, 16.97], "includesElement__metallic_radius": [198.0], "includesElement__metallic_radius_c12": [222.0, 91.0], "includesElement__vdw_radius_batsanov": [270.0, 180.0], "includesElement__vdw_radius_truhlar": [268.0], "includesElement__thermal_conductivity": [0.009], "includesElement__c6": [94.6], "includesElement__vdw_radius_dreiding": [395.03], "includesElement__gas_basicity": [490.1], "includesElement__proton_affinity": [513.6], "includesElement__vdw_radius_bondi": [175.0], "includesElement__vdw_radius_rt": [176.0], "formula": ["Ba3Cl6"], "spacegroup": ["189"], "thermalConductivity": [0.736002], "icsd": ["2190"], "band_gap": [4.5724], "density": [3.858529], "density_atomic": [29.8714], "deprecated": [false], "efermi": [0.06007363], "energy_above_hull": [0.009529673], "energy_per_atom": [-4.830725], "formation_energy_per_atom": [-2.958709], "is_gap_direct": [true], "is_magnetic": [false], "is_metal": [false], "is_stable": [false], "nelements": [2], "nsites": [9], "num_magnetic_sites": [0], "num_unique_magnetic_sites": [0], "theoretical": [false], "total_magnetization": [0.0], "total_magnetization_normalized_formula_units": [0.0], "total_magnetization_normalized_vol": [0.0], "uncorrected_energy_per_atom": [-15.74173], "volume": [268.8426], "cbm": [4.6251], "e_electronic": [3.198759], "e_ionic": [11.21367], "e_total": [14.41243], "n": [1.788508], "vbm": [0.0527], "e_ij_max": [0.8978594]}