{"includesElement": ["", "Ge", "Fe", "Ti"], "includesElement___series_id": [5, 8], "includesElement__abundance_crust": [1.5, 56300.0, 5650.0], "includesElement__atomic_number": [32, 26, 22], "includesElement__atomic_radius": [125.0, 140.0], "includesElement__atomic_radius_rahm": [234.0, 237.0, 257.0], "includesElement__atomic_volume": [13.6, 7.1, 10.6], "includesElement__atomic_weight": [72.63, 55.845, 47.867], "includesElement__covalent_radius_cordero": [120.0, 142.0, 160.0], "includesElement__covalent_radius_pyykko": [121.0, 116.0, 136.0], "includesElement__covalent_radius_pyykko_double": [111.0, 109.0, 117.0], "includesElement__covalent_radius_pyykko_triple": [114.0, 102.0, 108.0], "includesElement__density": [5.3234, 7.87, 4.506], "includesElement__dipole_polarizability": [40.0, 62.0, 100.0], "includesElement__dipole_polarizability_unc": [1.0, 4.0, 10.0], "includesElement__discovery_year": [1886, 1791], "includesElement__electron_affinity": [1.232712, 0.151, 0.079], "includesElement__electronegativity_allred-rochow": [0.0003859026, 0.0002786861, 0.0001703071], "includesElement__electronegativity_cottrell-sutton": [0.2160884, 0.1797987, 0.1521899], "includesElement__electronegativity_ghosh": [0.1895892, 0.1392532, 0.1233637], "includesElement__electronegativity_gordy": [0.04669421, 0.03232759, 0.02316176], "includesElement__electronegativity_mulliken": [4.566073, 4.026734, 3.45356], "includesElement__electronegativity_nagle": [0.4641589, 0.5053195, 0.3419952], "includesElement__electronegativity_pauling": [2.01, 1.83, 1.54], "includesElement__electronegativity_sanderson": [0.8001471, 0.748727, 0.4055462], "includesElement__en_ghosh": [0.1895892, 0.1392532, 0.1233637], "includesElement__en_pauling": [2.01, 1.83, 1.54], "includesElement__evaporation_heat": [328.0, 340.0, 422.6], "includesElement__fusion_heat": [36.8, 13.8, 18.8], "includesElement__glawe_number": [84, 71, 51], "includesElement__group_id": [14, 8, 4], "includesElement__heat_of_formation": [372.0, 415.5, 473.0], "includesElement__is_radioactive": [false], "includesElement__lattice_constant": [5.66, 2.87, 2.95], "includesElement__mendeleev_number": [89, 59, 43], "includesElement__molar_heat_capacity": [23.222, 25.1, 25.06], "includesElement__period": [4], "includesElement__pettifor_number": [84, 61, 51], "includesElement__specific_heat_capacity": [0.32, 0.449, 0.523], "includesElement__vdw_radius": [211.0, 204.0], "includesElement__vdw_radius_alvarez": [229.0, 244.0, 246.0], "includesElement__vdw_radius_mm3": [244.0, 223.0, 239.0], "includesElement__vdw_radius_uff": [428.0, 291.2, 317.5], "includesElement__abundance_sea": [5e-05, 0.002, 0.001], "includesElement__atomic_weight_uncertainty": [0.008, 0.002, 0.001], "includesElement__c6_gb": [365.0, 548.0, 1200.0], "includesElement__electronegativity_allen": [11.8, 10.64, 8.17], "includesElement__en_allen": [11.8, 10.64, 8.17], "includesElement__metallic_radius": [124.0, 117.0, 132.0], "includesElement__metallic_radius_c12": [144.0, 126.0, 147.0], "includesElement__thermal_conductivity": [60.2, 80.4, 21.9], "includesElement__vdw_radius_batsanov": [210.0, 205.0, 215.0], "includesElement__c6": [354.0, 482.0, 1044.0], "includesElement__vdw_radius_dreiding": [427.0], "includesElement__vdw_radius_truhlar": [211.0], "includesElement__covalent_radius_bragg": [140.0], "includesElement__gas_basicity": [731.1, 853.7], "includesElement__proton_affinity": [754.0, 876.0], "formula": ["Fe2Ge1Ti1"], "spacegroup": ["225"], "thermalConductivity": [23.2667], "icsd": ["186057"], "band_gap": [0.1709], "density": [8.171215], "density_atomic": [11.79666], "deprecated": [false], "efermi": [7.165935], "energy_above_hull": [0.0], "energy_per_atom": [-7.844281], "formation_energy_per_atom": [-0.4796407], "homogeneous_poisson": [0.248], "is_gap_direct": [false], "is_magnetic": [false], "is_metal": [false], "is_stable": [true], "nelements": [3], "nsites": [4], "num_magnetic_sites": [0], "num_unique_magnetic_sites": [0], "theoretical": [true], "total_magnetization": [0.0], "total_magnetization_normalized_formula_units": [0.0], "total_magnetization_normalized_vol": [0.0], "uncorrected_energy_per_atom": [-14.20081], "universal_anisotropy": [0.0], "volume": [47.18664], "cbm": [7.2214], "equilibrium_reaction_energy_per_atom": [-0.07363989], "vbm": [7.0505]}