{"includesElement": ["", "Er", "Rh", "C"], "includesElement___series_id": [9, 8, 1], "includesElement__abundance_crust": [3.5, 0.001, 200.0], "includesElement__atomic_number": [68, 45, 6], "includesElement__atomic_radius": [175.0, 135.0, 70.0], "includesElement__atomic_radius_rahm": [272.0, 233.0, 190.0], "includesElement__atomic_volume": [18.4, 8.3, 5.3], "includesElement__atomic_weight": [167.259, 102.9055, 12.011], "includesElement__covalent_radius_cordero": [189.0, 142.0, 73.0], "includesElement__covalent_radius_pyykko": [165.0, 125.0, 75.0], "includesElement__covalent_radius_pyykko_double": [133.0, 110.0, 67.0], "includesElement__density": [9.07, 12.4, 2.2], "includesElement__dipole_polarizability": [150.0, 66.0, 11.3], "includesElement__dipole_polarizability_unc": [10.0, 0.2], "includesElement__discovery_year": [1843, 1803], "includesElement__electronegativity_allred-rochow": [0.0001046832, 0.0002176, 0.0005777778], "includesElement__electronegativity_cottrell-sutton": [0.1314257, 0.1649242, 0.2081666], "includesElement__electronegativity_ghosh": [0.212261, 0.1408379, 0.224776], "includesElement__electronegativity_gordy": [0.01727273, 0.0272, 0.04333333], "includesElement__electronegativity_mulliken": [3.05385, 4.29795, 6.261208], "includesElement__electronegativity_nagle": [0.4536061, 0.5147142, 0.7073926], "includesElement__electronegativity_pauling": [1.24, 2.28, 2.55], "includesElement__electronegativity_sanderson": [0.5576573, 0.9761915, 0.427525], "includesElement__en_ghosh": [0.212261, 0.1408379, 0.224776], "includesElement__en_pauling": [1.24, 2.28, 2.55], "includesElement__evaporation_heat": [317.0, 494.0], "includesElement__glawe_number": [22, 63, 87], "includesElement__heat_of_formation": [316.4, 556.0, 716.87], "includesElement__is_radioactive": [false], "includesElement__lattice_constant": [3.56, 3.8, 3.57], "includesElement__mendeleev_number": [35, 64, 87], "includesElement__molar_heat_capacity": [28.12, 24.98, 8.517], "includesElement__period": [6, 5, 2], "includesElement__pettifor_number": [23, 66, 95], "includesElement__specific_heat_capacity": [0.168, 0.243, 0.709], "includesElement__vdw_radius": [229.0, 210.0, 170.0], "includesElement__vdw_radius_alvarez": [283.0, 244.0, 177.0], "includesElement__vdw_radius_mm3": [267.0, 234.0, 204.0], "includesElement__vdw_radius_uff": [339.1, 292.9, 385.1], "includesElement__abundance_sea": [8.7e-07, 28.0], "includesElement__atomic_weight_uncertainty": [0.003, 2e-05], "includesElement__c6_gb": [2150.0, 708.0, 47.9], "includesElement__covalent_radius_pyykko_triple": [106.0, 60.0], "includesElement__electron_affinity": [1.137, 1.262119], "includesElement__fusion_heat": [21.8], "includesElement__group_id": [9, 14], "includesElement__electronegativity_allen": [9.259, 15.05], "includesElement__en_allen": [9.259, 15.05], "includesElement__metallic_radius": [125.0], "includesElement__metallic_radius_c12": [134.0, 86.0], "includesElement__thermal_conductivity": [150.0, 1.59], "includesElement__vdw_radius_batsanov": [200.0, 170.0], "includesElement__is_monoisotopic": [true], "includesElement__gas_basicity": [745.4], "includesElement__proton_affinity": [768.0], "includesElement__covalent_radius_bragg": [77.0], "includesElement__c6": [46.6], "includesElement__vdw_radius_dreiding": [389.83], "includesElement__vdw_radius_bondi": [170.0], "includesElement__vdw_radius_rt": [177.0], "formula": ["C1Er1Rh3"], "spacegroup": ["221"], "thermalConductivity": [7.84537], "icsd": ["108131"], "band_gap": [0.0], "density": [11.47122], "density_atomic": [14.12788], "deprecated": [false], "efermi": [6.221948], "energy_above_hull": [0.0], "energy_per_atom": [-7.705517], "formation_energy_per_atom": [-0.5276553], "is_gap_direct": [false], "is_magnetic": [false], "is_metal": [true], "is_stable": [true], "nelements": [3], "nsites": [5], "num_magnetic_sites": [0], "num_unique_magnetic_sites": [0], "theoretical": [false], "total_magnetization": [1e-07], "total_magnetization_normalized_formula_units": [1e-07], "total_magnetization_normalized_vol": [1.415641e-09], "uncorrected_energy_per_atom": [-23.8528], "volume": [70.6394], "equilibrium_reaction_energy_per_atom": [-0.07234486]}