{"includesElement": ["", "Mg", "Ba"], "includesElement___series_id": [4], "includesElement__abundance_crust": [23300.0, 425.0], "includesElement__atomic_number": [12, 56], "includesElement__atomic_radius": [150.0, 215.0], "includesElement__atomic_radius_rahm": [240.0, 293.0], "includesElement__atomic_volume": [14.0, 39.0], "includesElement__atomic_weight": [24.305, 137.327], "includesElement__covalent_radius_cordero": [141.0, 215.0], "includesElement__covalent_radius_pyykko": [139.0, 196.0], "includesElement__covalent_radius_pyykko_double": [132.0, 161.0], "includesElement__covalent_radius_pyykko_triple": [127.0, 149.0], "includesElement__density": [1.74, 3.62], "includesElement__dipole_polarizability": [71.2, 272.0], "includesElement__dipole_polarizability_unc": [0.4, 10.0], "includesElement__discovery_year": [1808], "includesElement__electronegativity_allred-rochow": [0.0001475079, 7.418784e-05], "includesElement__electronegativity_cottrell-sutton": [0.1431908, 0.1205853], "includesElement__electronegativity_ghosh": [0.121644, 0.1586786], "includesElement__electronegativity_gordy": [0.0205036, 0.01454082], "includesElement__electronegativity_mulliken": [3.823117, 2.678142], "includesElement__electronegativity_nagle": [0.3039835, 0.1944556], "includesElement__electronegativity_pauling": [1.31, 0.89], "includesElement__electronegativity_sanderson": [0.1524211, 0.3032951], "includesElement__en_ghosh": [0.121644, 0.1586786], "includesElement__en_pauling": [1.31, 0.89], "includesElement__evaporation_heat": [131.8, 142.0], "includesElement__fusion_heat": [9.2, 7.66], "includesElement__glawe_number": [73, 14], "includesElement__group_id": [2], "includesElement__heat_of_formation": [147.1, 179.1], "includesElement__is_radioactive": [false], "includesElement__lattice_constant": [3.21, 5.02], "includesElement__mendeleev_number": [76, 9], "includesElement__molar_heat_capacity": [24.869, 28.07], "includesElement__period": [3, 6], "includesElement__pettifor_number": [73, 14], "includesElement__specific_heat_capacity": [1.023, 0.204], "includesElement__vdw_radius": [173.0, 268.0], "includesElement__vdw_radius_alvarez": [251.0, 303.0], "includesElement__vdw_radius_mm3": [243.0, 307.0], "includesElement__vdw_radius_uff": [302.1, 370.3], "includesElement__abundance_sea": [1290.0, 0.013], "includesElement__c6_gb": [629.0, 5540.0], "includesElement__covalent_radius_bragg": [142.0, 210.0], "includesElement__electronegativity_allen": [7.646, 5.211], "includesElement__en_allen": [7.646, 5.211], "includesElement__metallic_radius": [136.0, 198.0], "includesElement__metallic_radius_c12": [160.0, 222.0], "includesElement__thermal_conductivity": [156.0], "includesElement__vdw_radius_batsanov": [220.0, 270.0], "includesElement__c6": [626.0], "includesElement__gas_basicity": [797.3], "includesElement__proton_affinity": [819.6], "includesElement__vdw_radius_bondi": [173.0], "includesElement__electron_affinity": [0.14462], "includesElement__atomic_weight_uncertainty": [0.007], "includesElement__vdw_radius_truhlar": [268.0], "formula": ["Ba6Mg23"], "spacegroup": ["225"], "thermalConductivity": [0.86375], "icsd": ["109225"], "band_gap": [0.0], "density": [2.618883], "density_atomic": [30.23778], "deprecated": [false], "efermi": [2.624159], "energy_above_hull": [0.0], "energy_per_atom": [-1.740448], "formation_energy_per_atom": [-0.05028746], "is_gap_direct": [false], "is_magnetic": [false], "is_metal": [true], "is_stable": [true], "nelements": [2], "nsites": [29], "num_magnetic_sites": [0], "num_unique_magnetic_sites": [0], "theoretical": [false], "total_magnetization": [1.13872], "total_magnetization_normalized_formula_units": [1.13872], "total_magnetization_normalized_vol": [0.001298581], "uncorrected_energy_per_atom": [-8.844973], "volume": [876.8957], "equilibrium_reaction_energy_per_atom": [-0.0107672]}