{"includesElement": ["", "Yb", "Ir"], "includesElement___series_id": [9, 8], "includesElement__abundance_crust": [3.2, 0.001], "includesElement__atomic_number": [70, 77], "includesElement__atomic_radius": [175.0, 135.0], "includesElement__atomic_radius_rahm": [277.0, 240.0], "includesElement__atomic_volume": [24.8, 8.54], "includesElement__atomic_weight": [173.045, 192.217], "includesElement__covalent_radius_cordero": [187.0, 141.0], "includesElement__covalent_radius_pyykko": [170.0, 122.0], "includesElement__covalent_radius_pyykko_double": [129.0, 115.0], "includesElement__density": [6.9, 22.5622], "includesElement__dipole_polarizability": [139.0, 54.0], "includesElement__dipole_polarizability_unc": [6.0, 7.0], "includesElement__discovery_year": [1878, 1804], "includesElement__electron_affinity": [-0.02, 1.5638], "includesElement__electronegativity_allred-rochow": [9.861592e-05, 0.0002620263], "includesElement__electronegativity_cottrell-sutton": [0.1294786, 0.1787938], "includesElement__electronegativity_ghosh": [0.22119, 0.25106], "includesElement__electronegativity_gordy": [0.01676471, 0.03196721], "includesElement__electronegativity_mulliken": [3.11708, 5.26541], "includesElement__electronegativity_nagle": [0.4864465, 0.5503212], "includesElement__electronegativity_sanderson": [0.5176678, 1.475998], "includesElement__en_ghosh": [0.22119, 0.25106], "includesElement__evaporation_heat": [159.0, 604.0], "includesElement__fusion_heat": [3.35, 27.61], "includesElement__glawe_number": [18, 62], "includesElement__heat_of_formation": [155.6, 669.0], "includesElement__is_radioactive": [false], "includesElement__lattice_constant": [5.49, 3.84], "includesElement__mendeleev_number": [39, 65], "includesElement__molar_heat_capacity": [26.74, 25.1], "includesElement__period": [6], "includesElement__pettifor_number": [17, 65], "includesElement__specific_heat_capacity": [0.155, 0.131], "includesElement__vdw_radius": [226.0, 213.0], "includesElement__vdw_radius_alvarez": [280.0, 241.0], "includesElement__vdw_radius_mm3": [279.0, 236.0], "includesElement__vdw_radius_uff": [335.5, 284.0], "includesElement__abundance_sea": [8.2e-07], "includesElement__atomic_weight_uncertainty": [0.01, 0.003], "includesElement__c6_gb": [1910.0, 522.0], "includesElement__covalent_radius_pyykko_triple": [107.0], "includesElement__electronegativity_pauling": [2.2], "includesElement__en_pauling": [2.2], "includesElement__group_id": [9], "includesElement__electronegativity_allen": [9.96], "includesElement__en_allen": [9.96], "includesElement__metallic_radius": [127.0], "includesElement__metallic_radius_c12": [136.0], "includesElement__thermal_conductivity": [147.0], "includesElement__vdw_radius_batsanov": [200.0], "formula": ["Ir1Yb1"], "spacegroup": ["221"], "thermalConductivity": [3.86662], "icsd": ["104603"], "band_gap": [0.0], "density": [16.04501], "density_atomic": [18.9007], "deprecated": [false], "efermi": [4.753011], "homogeneous_poisson": [0.34], "is_gap_direct": [false], "is_magnetic": [false], "is_metal": [true], "is_stable": [false], "nelements": [2], "nsites": [2], "num_magnetic_sites": [0], "num_unique_magnetic_sites": [0], "theoretical": [false], "total_magnetization": [0.0019766], "total_magnetization_normalized_formula_units": [0.0019766], "total_magnetization_normalized_vol": [5.228908e-05], "universal_anisotropy": [3.246], "volume": [37.80139]}