{"includesElement": ["", "As", "Cr"], "includesElement___series_id": [5, 8], "includesElement__abundance_crust": [1.8, 102.0], "includesElement__atomic_number": [33, 24], "includesElement__atomic_radius": [115.0, 140.0], "includesElement__atomic_radius_rahm": [231.0, 233.0], "includesElement__atomic_volume": [13.1, 7.23], "includesElement__atomic_weight": [74.92159, 51.9961], "includesElement__covalent_radius_cordero": [119.0, 139.0], "includesElement__covalent_radius_pyykko": [121.0, 122.0], "includesElement__covalent_radius_pyykko_double": [114.0, 111.0], "includesElement__covalent_radius_pyykko_triple": [106.0, 103.0], "includesElement__density": [5.75, 7.15], "includesElement__dipole_polarizability": [30.0, 83.0], "includesElement__dipole_polarizability_unc": [1.0, 12.0], "includesElement__electron_affinity": [0.804, 0.666], "includesElement__electronegativity_allred-rochow": [0.0004302985, 0.0001981994], "includesElement__electronegativity_cottrell-sutton": [0.22818, 0.1555003], "includesElement__electronegativity_ghosh": [0.2068208, 0.1313053], "includesElement__electronegativity_gordy": [0.05206612, 0.02418033], "includesElement__electronegativity_mulliken": [5.2965, 3.716255], "includesElement__electronegativity_nagle": [0.5503212, 0.4165729], "includesElement__electronegativity_pauling": [2.18, 1.66], "includesElement__electronegativity_sanderson": [0.8253373, 0.6017723], "includesElement__en_ghosh": [0.2068208, 0.1313053], "includesElement__en_pauling": [2.18, 1.66], "includesElement__evaporation_heat": [32.4, 342.0], "includesElement__glawe_number": [90, 55], "includesElement__group_id": [15, 6], "includesElement__heat_of_formation": [302.5, 397.48], "includesElement__is_radioactive": [false], "includesElement__lattice_constant": [4.13, 2.88], "includesElement__mendeleev_number": [95, 51], "includesElement__molar_heat_capacity": [24.64, 23.35], "includesElement__period": [4], "includesElement__pettifor_number": [89, 57], "includesElement__specific_heat_capacity": [0.329, 0.449], "includesElement__vdw_radius": [185.0, 206.0], "includesElement__vdw_radius_alvarez": [188.0, 245.0], "includesElement__vdw_radius_mm3": [236.0, 225.0], "includesElement__vdw_radius_uff": [423.0, 302.3], "includesElement__abundance_sea": [0.0037, 0.0003], "includesElement__atomic_weight_uncertainty": [6e-06, 0.0006], "includesElement__c6_gb": [260.0, 709.0], "includesElement__covalent_radius_bragg": [126.0, 140.0], "includesElement__electronegativity_allen": [13.08, 9.77], "includesElement__en_allen": [13.08, 9.77], "includesElement__metallic_radius": [121.0, 119.0], "includesElement__metallic_radius_c12": [148.0, 128.0], "includesElement__vdw_radius_batsanov": [205.0], "includesElement__c6": [246.0, 602.0], "includesElement__is_monoisotopic": [true], "includesElement__vdw_radius_dreiding": [415.0], "includesElement__vdw_radius_bondi": [185.0], "includesElement__discovery_year": [1797], "includesElement__fusion_heat": [21.0], "includesElement__thermal_conductivity": [93.9], "includesElement__gas_basicity": [768.4], "includesElement__proton_affinity": [791.3], "formula": ["As2Cr2"], "spacegroup": ["194"], "thermalConductivity": [4.611], "icsd": ["107934"], "band_gap": [0.0], "density": [6.18848], "density_atomic": [17.02775], "deprecated": [false], "efermi": [6.281247], "energy_above_hull": [0.0], "energy_per_atom": [-15.27939], "formation_energy_per_atom": [-0.388949], "homogeneous_poisson": [0.215], "is_gap_direct": [false], "is_magnetic": [true], "is_metal": [true], "is_stable": [true], "nelements": [2], "nsites": [4], "num_magnetic_sites": [4], "num_unique_magnetic_sites": [3], "theoretical": [false], "total_magnetization": [6.070554], "total_magnetization_normalized_formula_units": [3.035277], "total_magnetization_normalized_vol": [0.08912736], "uncorrected_energy_per_atom": [-15.27939], "universal_anisotropy": [0.585], "volume": [68.111], "equilibrium_reaction_energy_per_atom": [-0.388949]}