{"includesElement": ["", "Bi", "Rb"], "includesElement___series_id": [7, 3], "includesElement__abundance_crust": [0.0085, 90.0], "includesElement__atomic_number": [83, 37], "includesElement__atomic_radius": [160.0, 235.0], "includesElement__atomic_radius_rahm": [250.0, 240.0], "includesElement__atomic_volume": [21.3, 55.9], "includesElement__atomic_weight": [208.9804, 85.4678], "includesElement__covalent_radius_cordero": [148.0, 220.0], "includesElement__covalent_radius_pyykko": [151.0, 210.0], "includesElement__covalent_radius_pyykko_double": [141.0, 202.0], "includesElement__covalent_radius_pyykko_triple": [135.0], "includesElement__density": [9.79, 1.53], "includesElement__dipole_polarizability": [48.0, 319.8], "includesElement__dipole_polarizability_unc": [4.0, 0.3], "includesElement__electron_affinity": [0.942362, 0.48592], "includesElement__electronegativity_allred-rochow": [0.0002763037, 4.988662e-05], "includesElement__electronegativity_cottrell-sutton": [0.2042593, 0.1023533], "includesElement__electronegativity_ghosh": [0.182377, 0.104686], "includesElement__electronegativity_gordy": [0.04172185, 0.01047619], "includesElement__electronegativity_mulliken": [4.113939, 2.331524], "includesElement__electronegativity_nagle": [0.470518, 0.1462314], "includesElement__electronegativity_pauling": [1.9, 0.82], "includesElement__electronegativity_sanderson": [0.8136501, 0.1764136], "includesElement__en_ghosh": [0.182377, 0.104686], "includesElement__en_pauling": [1.9, 0.82], "includesElement__evaporation_heat": [172.0, 75.8], "includesElement__fusion_heat": [11.0, 2.2], "includesElement__glawe_number": [92, 9], "includesElement__group_id": [15, 1], "includesElement__heat_of_formation": [209.6, 80.9], "includesElement__is_radioactive": [false], "includesElement__lattice_constant": [4.75, 5.59], "includesElement__mendeleev_number": [97, 4], "includesElement__molar_heat_capacity": [25.52, 31.06], "includesElement__period": [6, 5], "includesElement__pettifor_number": [87, 9], "includesElement__specific_heat_capacity": [0.122, 0.363], "includesElement__vdw_radius": [207.0, 303.0], "includesElement__vdw_radius_alvarez": [254.0, 321.0], "includesElement__vdw_radius_mm3": [266.0, 325.0], "includesElement__vdw_radius_uff": [437.0, 411.4], "includesElement__abundance_sea": [2e-05, 0.12], "includesElement__atomic_weight_uncertainty": [1e-05, 0.0003], "includesElement__c6_gb": [513.0, 4660.0], "includesElement__covalent_radius_bragg": [148.0, 225.0], "includesElement__electronegativity_allen": [11.9, 4.177], "includesElement__en_allen": [11.9, 4.177], "includesElement__metallic_radius": [151.0, 216.0], "includesElement__metallic_radius_c12": [178.0, 248.0], "includesElement__thermal_conductivity": [7.9, 58.2], "includesElement__vdw_radius_batsanov": [230.0, 290.0], "includesElement__is_monoisotopic": [true], "includesElement__vdw_radius_truhlar": [207.0, 303.0], "includesElement__discovery_year": [1861], "includesElement__c6": [4769.0], "formula": ["Bi2Rb6"], "spacegroup": ["194"], "thermalConductivity": [0.300378], "icsd": ["616995"], "band_gap": [0.0], "density": [3.700285], "density_atomic": [52.21139], "deprecated": [false], "efermi": [0.7920951], "energy_above_hull": [0.0], "energy_per_atom": [-2.027055], "formation_energy_per_atom": [-0.331532], "is_gap_direct": [false], "is_magnetic": [false], "is_metal": [true], "is_stable": [true], "nelements": [2], "nsites": [8], "num_magnetic_sites": [0], "num_unique_magnetic_sites": [0], "theoretical": [false], "total_magnetization": [1e-07], "total_magnetization_normalized_formula_units": [5e-08], "total_magnetization_normalized_vol": [2.394114e-10], "uncorrected_energy_per_atom": [-25.53206], "volume": [417.6911], "equilibrium_reaction_energy_per_atom": [-0.1484255]}