{"includesElement": ["", "Pt", "Th"], "includesElement___series_id": [8, 10], "includesElement__abundance_crust": [0.005, 9.6], "includesElement__atomic_number": [78, 90], "includesElement__atomic_radius": [135.0, 180.0], "includesElement__atomic_radius_rahm": [230.0, 288.0], "includesElement__atomic_volume": [9.1, 19.8], "includesElement__atomic_weight": [195.084, 232.0377], "includesElement__covalent_radius_cordero": [136.0, 206.0], "includesElement__covalent_radius_pyykko": [123.0, 175.0], "includesElement__covalent_radius_pyykko_double": [112.0, 143.0], "includesElement__covalent_radius_pyykko_triple": [110.0, 136.0], "includesElement__density": [21.5, 11.7], "includesElement__dipole_polarizability": [48.0, 217.0], "includesElement__dipole_polarizability_unc": [4.0, 54.0], "includesElement__discovery_year": [1735, 1828], "includesElement__electron_affinity": [2.128], "includesElement__electronegativity_allred-rochow": [0.0002346487, 0.0001028571], "includesElement__electronegativity_cottrell-sutton": [0.1698876, 0.1341641], "includesElement__electronegativity_ghosh": [0.25691, 0.10277], "includesElement__electronegativity_gordy": [0.02886179, 0.018], "includesElement__electronegativity_mulliken": [5.543415, 3.15335], "includesElement__electronegativity_nagle": [0.5928156, 0.2641598], "includesElement__electronegativity_pauling": [2.2, 1.3], "includesElement__electronegativity_sanderson": [1.45101, 0.5557019], "includesElement__en_ghosh": [0.25691, 0.10277], "includesElement__en_pauling": [2.2, 1.3], "includesElement__evaporation_heat": [470.0, 513.7], "includesElement__fusion_heat": [21.76, 16.11], "includesElement__glawe_number": [64, 34], "includesElement__group_id": [10], "includesElement__heat_of_formation": [565.7, 602.0], "includesElement__is_radioactive": [false, true], "includesElement__lattice_constant": [3.92, 5.08], "includesElement__mendeleev_number": [69, 16], "includesElement__molar_heat_capacity": [25.86, 27.32], "includesElement__period": [6, 7], "includesElement__pettifor_number": [68, 47], "includesElement__specific_heat_capacity": [0.133, 0.118], "includesElement__vdw_radius": [213.0, 245.0], "includesElement__vdw_radius_alvarez": [229.0, 293.0], "includesElement__vdw_radius_mm3": [239.0, 274.0], "includesElement__vdw_radius_uff": [275.4, 339.6], "includesElement__atomic_weight_uncertainty": [0.009, 0.0004], "includesElement__c6_gb": [470.0], "includesElement__electronegativity_allen": [10.16], "includesElement__en_allen": [10.16], "includesElement__metallic_radius": [130.0], "includesElement__metallic_radius_c12": [139.0], "includesElement__thermal_conductivity": [71.6], "includesElement__vdw_radius_batsanov": [205.0, 240.0], "includesElement__abundance_sea": [1e-06], "formula": ["Pt6Th14"], "spacegroup": ["186"], "thermalConductivity": [0.814413], "icsd": ["150671"], "band_gap": [0.0], "density": [12.95815], "density_atomic": [28.31416], "deprecated": [false], "efermi": [7.412873], "energy_above_hull": [0.0], "energy_per_atom": [-67.69127], "formation_energy_per_atom": [-0.8122726], "is_gap_direct": [false], "is_magnetic": [false], "is_metal": [true], "is_stable": [true], "nelements": [2], "nsites": [20], "num_magnetic_sites": [0], "num_unique_magnetic_sites": [0], "theoretical": [false], "total_magnetization": [0.0], "total_magnetization_normalized_formula_units": [0.0], "total_magnetization_normalized_vol": [0.0], "uncorrected_energy_per_atom": [-67.69127], "volume": [566.2831], "equilibrium_reaction_energy_per_atom": [-0.01380799]}