{"includesElement": ["", "Sn", "Au"], "includesElement___series_id": [7, 8], "includesElement__abundance_crust": [2.3, 0.004], "includesElement__atomic_number": [50, 79], "includesElement__atomic_radius": [145.0, 135.0], "includesElement__atomic_radius_rahm": [248.0, 226.0], "includesElement__atomic_volume": [16.3, 10.2], "includesElement__atomic_weight": [118.71, 196.9666], "includesElement__covalent_radius_cordero": [139.0, 136.0], "includesElement__covalent_radius_pyykko": [140.0, 124.0], "includesElement__covalent_radius_pyykko_double": [130.0, 121.0], "includesElement__covalent_radius_pyykko_triple": [132.0, 123.0], "includesElement__density": [7.287, 19.3], "includesElement__dipole_polarizability": [53.0, 36.0], "includesElement__dipole_polarizability_unc": [6.0, 3.0], "includesElement__electron_affinity": [1.112067, 2.30863], "includesElement__electronegativity_allred-rochow": [0.0002882653, 0.0002406348], "includesElement__electronegativity_cottrell-sutton": [0.2008909, 0.1727388], "includesElement__electronegativity_ghosh": [0.178052, 0.26137], "includesElement__electronegativity_gordy": [0.04035714, 0.02983871], "includesElement__electronegativity_mulliken": [4.227992, 5.767091], "includesElement__electronegativity_nagle": [0.4225986, 0.67354], "includesElement__electronegativity_pauling": [1.96, 2.4], "includesElement__electronegativity_sanderson": [0.7622797, 1.426701], "includesElement__en_ghosh": [0.178052, 0.26137], "includesElement__en_pauling": [1.96, 2.4], "includesElement__evaporation_heat": [296.0, 340.0], "includesElement__fusion_heat": [7.07, 12.68], "includesElement__glawe_number": [83, 66], "includesElement__group_id": [14, 11], "includesElement__heat_of_formation": [301.2, 368.2], "includesElement__is_radioactive": [false], "includesElement__lattice_constant": [5.82, 4.08], "includesElement__mendeleev_number": [90, 73], "includesElement__molar_heat_capacity": [26.99, 25.418], "includesElement__period": [5, 6], "includesElement__pettifor_number": [83, 70], "includesElement__specific_heat_capacity": [0.227, 0.129], "includesElement__vdw_radius": [217.0, 214.0], "includesElement__vdw_radius_alvarez": [242.0, 232.0], "includesElement__vdw_radius_mm3": [259.0, 243.0], "includesElement__vdw_radius_uff": [439.2, 329.3], "includesElement__abundance_sea": [4e-06], "includesElement__atomic_weight_uncertainty": [0.007, 5e-06], "includesElement__c6_gb": [715.0, 427.0], "includesElement__covalent_radius_bragg": [140.0], "includesElement__electronegativity_allen": [10.79, 11.33], "includesElement__en_allen": [10.79, 11.33], "includesElement__metallic_radius": [142.0, 134.0], "includesElement__metallic_radius_c12": [163.0, 144.0], "includesElement__thermal_conductivity": [66.8, 318.0], "includesElement__vdw_radius_batsanov": [225.0, 210.0], "includesElement__c6": [659.0], "includesElement__vdw_radius_dreiding": [447.0], "includesElement__vdw_radius_bondi": [217.0], "includesElement__is_monoisotopic": [true], "formula": ["Au2Sn8"], "spacegroup": ["68"], "thermalConductivity": [0.459713], "icsd": ["151194"], "band_gap": [0.0], "density": [8.744867], "density_atomic": [25.51351], "deprecated": [false], "efermi": [7.405603], "energy_above_hull": [0.07716987], "energy_per_atom": [-29.89419], "formation_energy_per_atom": [0.01975279], "homogeneous_poisson": [0.376], "is_gap_direct": [false], "is_magnetic": [false], "is_metal": [true], "is_stable": [false], "nelements": [2], "nsites": [10], "num_magnetic_sites": [0], "num_unique_magnetic_sites": [0], "theoretical": [false], "total_magnetization": [1e-07], "total_magnetization_normalized_formula_units": [5e-08], "total_magnetization_normalized_vol": [3.919493e-10], "uncorrected_energy_per_atom": [-29.89419], "universal_anisotropy": [2.044], "volume": [255.1351]}