{"includesElement": ["", "Si", "Tb", "Au"], "includesElement___series_id": [5, 9, 8], "includesElement__abundance_crust": [282000.0, 1.2, 0.004], "includesElement__atomic_number": [14, 65, 79], "includesElement__atomic_radius": [110.0, 175.0, 135.0], "includesElement__atomic_radius_rahm": [232.0, 276.0, 226.0], "includesElement__atomic_volume": [12.1, 19.2, 10.2], "includesElement__atomic_weight": [28.085, 158.9254, 196.9666], "includesElement__covalent_radius_cordero": [111.0, 194.0, 136.0], "includesElement__covalent_radius_pyykko": [116.0, 168.0, 124.0], "includesElement__covalent_radius_pyykko_double": [107.0, 135.0, 121.0], "includesElement__covalent_radius_pyykko_triple": [102.0, 123.0], "includesElement__density": [2.3296, 8.23, 19.3], "includesElement__dipole_polarizability": [37.3, 170.0, 36.0], "includesElement__dipole_polarizability_unc": [0.7, 20.0, 3.0], "includesElement__discovery_year": [1824, 1843], "includesElement__electron_affinity": [1.389521, 1.165, 2.30863], "includesElement__electronegativity_allred-rochow": [0.0003084126, 0.0001009779, 0.0002406348], "includesElement__electronegativity_cottrell-sutton": [0.1891451, 0.130247, 0.1727388], "includesElement__electronegativity_ghosh": [0.178503, 0.198863, 0.26137], "includesElement__electronegativity_gordy": [0.03577586, 0.01696429, 0.02983871], "includesElement__electronegativity_mulliken": [4.770602, 3.5144, 5.767091], "includesElement__electronegativity_nagle": [0.4750986, 0.4014652, 0.67354], "includesElement__electronegativity_pauling": [1.9, 2.4], "includesElement__electronegativity_sanderson": [0.3468158, 0.5163695, 1.426701], "includesElement__en_ghosh": [0.178503, 0.198863, 0.26137], "includesElement__en_pauling": [1.9, 2.4], "includesElement__evaporation_heat": [383.0, 389.0, 340.0], "includesElement__fusion_heat": [50.6, 12.68], "includesElement__glawe_number": [85, 25, 66], "includesElement__group_id": [14, 11], "includesElement__heat_of_formation": [450.0, 388.7, 368.2], "includesElement__is_radioactive": [false], "includesElement__lattice_constant": [5.43, 3.6, 4.08], "includesElement__mendeleev_number": [88, 29, 73], "includesElement__molar_heat_capacity": [19.99, 28.91, 25.418], "includesElement__period": [3, 6], "includesElement__pettifor_number": [85, 26, 70], "includesElement__specific_heat_capacity": [0.712, 0.182, 0.129], "includesElement__vdw_radius": [210.0, 233.0, 214.0], "includesElement__vdw_radius_alvarez": [219.0, 279.0, 232.0], "includesElement__vdw_radius_mm3": [229.0, 270.0, 243.0], "includesElement__vdw_radius_uff": [429.5, 345.1, 329.3], "includesElement__abundance_sea": [2.2, 1.4e-07, 4e-06], "includesElement__c6_gb": [308.0, 2590.0, 427.0], "includesElement__covalent_radius_bragg": [117.0], "includesElement__electronegativity_allen": [11.33], "includesElement__en_allen": [11.33], "includesElement__metallic_radius": [117.0, 134.0], "includesElement__metallic_radius_c12": [138.0, 144.0], "includesElement__thermal_conductivity": [149.0, 11.1, 318.0], "includesElement__vdw_radius_batsanov": [210.0], "includesElement__c6": [305.0], "includesElement__vdw_radius_dreiding": [427.0], "includesElement__gas_basicity": [814.1], "includesElement__proton_affinity": [837.0], "includesElement__vdw_radius_bondi": [210.0], "includesElement__atomic_weight_uncertainty": [2e-05, 5e-06], "includesElement__is_monoisotopic": [true], "formula": ["Au2Si2Tb1"], "spacegroup": ["139"], "thermalConductivity": [3.25656], "icsd": ["55818"], "band_gap": [0.0], "density": [11.02281], "density_atomic": [18.34953], "deprecated": [false], "efermi": [6.967713], "energy_above_hull": [0.0], "energy_per_atom": [-4.944277], "formation_energy_per_atom": [-0.5370245], "is_gap_direct": [false], "is_magnetic": [false], "is_metal": [true], "is_stable": [true], "nelements": [3], "nsites": [5], "num_magnetic_sites": [0], "num_unique_magnetic_sites": [0], "theoretical": [false], "total_magnetization": [1.2e-06], "total_magnetization_normalized_formula_units": [1.2e-06], "total_magnetization_normalized_vol": [1.307935e-08], "uncorrected_energy_per_atom": [-30.60468], "volume": [91.74767], "equilibrium_reaction_energy_per_atom": [-0.02251643]}