{"includesElement": ["", "Zr", "Te"], "includesElement___series_id": [8, 5], "includesElement__abundance_crust": [165.0, 0.001], "includesElement__atomic_number": [40, 52], "includesElement__atomic_radius": [155.0, 140.0], "includesElement__atomic_radius_rahm": [269.0, 242.0], "includesElement__atomic_volume": [14.1, 20.5], "includesElement__atomic_weight": [91.224, 127.6], "includesElement__covalent_radius_cordero": [175.0, 138.0], "includesElement__covalent_radius_pyykko": [154.0, 136.0], "includesElement__covalent_radius_pyykko_double": [127.0, 128.0], "includesElement__covalent_radius_pyykko_triple": [121.0], "includesElement__density": [6.52, 6.232], "includesElement__dipole_polarizability": [112.0, 38.0], "includesElement__dipole_polarizability_unc": [13.0, 4.0], "includesElement__discovery_year": [1789, 1782], "includesElement__electron_affinity": [0.426, 1.970876], "includesElement__electronegativity_allred-rochow": [0.0001328217, 0.0003757569], "includesElement__electronegativity_cottrell-sutton": [0.1430194, 0.2260596], "includesElement__electronegativity_ghosh": [0.1248887, 0.2056992], "includesElement__electronegativity_gordy": [0.02045455, 0.05110294], "includesElement__electronegativity_mulliken": [3.52995, 5.490268], "includesElement__electronegativity_nagle": [0.3293169, 0.5404919], "includesElement__electronegativity_pauling": [1.33, 2.1], "includesElement__electronegativity_sanderson": [0.4744467, 0.8622506], "includesElement__en_ghosh": [0.1248887, 0.2056992], "includesElement__en_pauling": [1.33, 2.1], "includesElement__evaporation_heat": [567.0, 49.8], "includesElement__fusion_heat": [19.2, 17.91], "includesElement__glawe_number": [49, 94], "includesElement__group_id": [4, 16], "includesElement__heat_of_formation": [610.0, 196.6], "includesElement__is_radioactive": [false], "includesElement__lattice_constant": [3.23, 4.45], "includesElement__mendeleev_number": [44, 102], "includesElement__molar_heat_capacity": [25.36, 25.73], "includesElement__period": [5], "includesElement__pettifor_number": [49, 92], "includesElement__specific_heat_capacity": [0.278, 0.202], "includesElement__vdw_radius": [223.0, 206.0], "includesElement__vdw_radius_alvarez": [252.0, 199.0], "includesElement__vdw_radius_mm3": [254.0, 244.0], "includesElement__vdw_radius_uff": [312.4, 447.0], "includesElement__abundance_sea": [3e-05], "includesElement__atomic_weight_uncertainty": [0.002, 0.03], "includesElement__c6_gb": [1360.0, 471.0], "includesElement__electronegativity_allen": [7.808, 12.76], "includesElement__en_allen": [7.808, 12.76], "includesElement__metallic_radius": [145.0, 137.0], "includesElement__metallic_radius_c12": [160.0], "includesElement__thermal_conductivity": [22.7, 14.3], "includesElement__vdw_radius_batsanov": [230.0, 210.0], "includesElement__covalent_radius_bragg": [133.0], "includesElement__c6": [445.0], "includesElement__vdw_radius_dreiding": [423.0], "includesElement__vdw_radius_bondi": [206.0], "formula": ["Te2Zr2"], "spacegroup": ["194"], "thermalConductivity": [8.4239, 7.39445], "icsd": ["104197", "52514"], "band_gap": [0.0], "density": [7.525744], "density_atomic": [24.14152], "deprecated": [false], "efermi": [7.570747], "energy_above_hull": [0.0859915], "energy_per_atom": [-25.04038], "formation_energy_per_atom": [-0.9568751], "homogeneous_poisson": [0.244], "is_gap_direct": [false], "is_magnetic": [false], "is_metal": [true], "is_stable": [false], "nelements": [2], "nsites": [4], "num_magnetic_sites": [0], "num_unique_magnetic_sites": [0], "theoretical": [false], "total_magnetization": [2e-07], "total_magnetization_normalized_formula_units": [1e-07], "total_magnetization_normalized_vol": [2.071121e-09], "uncorrected_energy_per_atom": [-25.04038], "universal_anisotropy": [1.709], "volume": [96.56608]}