{"includesElement": ["", "Ba", "Bi"], "includesElement___series_id": [4, 7], "includesElement__abundance_crust": [425.0, 0.0085], "includesElement__atomic_number": [56, 83], "includesElement__atomic_radius": [215.0, 160.0], "includesElement__atomic_radius_rahm": [293.0, 250.0], "includesElement__atomic_volume": [39.0, 21.3], "includesElement__atomic_weight": [137.327, 208.9804], "includesElement__covalent_radius_cordero": [215.0, 148.0], "includesElement__covalent_radius_pyykko": [196.0, 151.0], "includesElement__covalent_radius_pyykko_double": [161.0, 141.0], "includesElement__covalent_radius_pyykko_triple": [149.0, 135.0], "includesElement__density": [3.62, 9.79], "includesElement__dipole_polarizability": [272.0, 48.0], "includesElement__dipole_polarizability_unc": [10.0, 4.0], "includesElement__discovery_year": [1808], "includesElement__electron_affinity": [0.14462, 0.942362], "includesElement__electronegativity_allred-rochow": [7.418784e-05, 0.0002763037], "includesElement__electronegativity_cottrell-sutton": [0.1205853, 0.2042593], "includesElement__electronegativity_ghosh": [0.1586786, 0.182377], "includesElement__electronegativity_gordy": [0.01454082, 0.04172185], "includesElement__electronegativity_mulliken": [2.678142, 4.113939], "includesElement__electronegativity_nagle": [0.1944556, 0.470518], "includesElement__electronegativity_pauling": [0.89, 1.9], "includesElement__electronegativity_sanderson": [0.3032951, 0.8136501], "includesElement__en_ghosh": [0.1586786, 0.182377], "includesElement__en_pauling": [0.89, 1.9], "includesElement__evaporation_heat": [142.0, 172.0], "includesElement__fusion_heat": [7.66, 11.0], "includesElement__glawe_number": [14, 92], "includesElement__group_id": [2, 15], "includesElement__heat_of_formation": [179.1, 209.6], "includesElement__is_radioactive": [false], "includesElement__lattice_constant": [5.02, 4.75], "includesElement__mendeleev_number": [9, 97], "includesElement__molar_heat_capacity": [28.07, 25.52], "includesElement__period": [6], "includesElement__pettifor_number": [14, 87], "includesElement__specific_heat_capacity": [0.204, 0.122], "includesElement__vdw_radius": [268.0, 207.0], "includesElement__vdw_radius_alvarez": [303.0, 254.0], "includesElement__vdw_radius_mm3": [307.0, 266.0], "includesElement__vdw_radius_uff": [370.3, 437.0], "includesElement__abundance_sea": [0.013, 2e-05], "includesElement__atomic_weight_uncertainty": [0.007, 1e-05], "includesElement__c6_gb": [5540.0, 513.0], "includesElement__covalent_radius_bragg": [210.0, 148.0], "includesElement__electronegativity_allen": [5.211, 11.9], "includesElement__en_allen": [5.211, 11.9], "includesElement__metallic_radius": [198.0, 151.0], "includesElement__metallic_radius_c12": [222.0, 178.0], "includesElement__vdw_radius_batsanov": [270.0, 230.0], "includesElement__vdw_radius_truhlar": [268.0, 207.0], "includesElement__thermal_conductivity": [7.9], "includesElement__is_monoisotopic": [true], "formula": ["Ba2Bi3"], "spacegroup": ["71"], "thermalConductivity": [1.3491], "icsd": ["170218"], "band_gap": [0.0], "density": [7.537689], "density_atomic": [39.72395], "deprecated": [false], "efermi": [4.072208], "energy_above_hull": [0.0], "energy_per_atom": [-3.867734], "formation_energy_per_atom": [-0.7958505], "is_gap_direct": [false], "is_magnetic": [false], "is_metal": [true], "is_stable": [true], "nelements": [2], "nsites": [5], "num_magnetic_sites": [0], "num_unique_magnetic_sites": [0], "theoretical": [false], "total_magnetization": [2e-07], "total_magnetization_normalized_formula_units": [2e-07], "total_magnetization_normalized_vol": [1.006949e-09], "uncorrected_energy_per_atom": [-46.57658], "volume": [198.6198], "equilibrium_reaction_energy_per_atom": [-0.0699394]}