{"includesElement": ["", "Si", "Br"], "includesElement___series_id": [5, 6], "includesElement__abundance_crust": [282000.0, 2.4], "includesElement__atomic_number": [14, 35], "includesElement__atomic_radius": [110.0, 115.0], "includesElement__atomic_radius_rahm": [232.0, 219.0], "includesElement__atomic_volume": [12.1, 23.5], "includesElement__atomic_weight": [28.085, 79.904], "includesElement__covalent_radius_cordero": [111.0, 120.0], "includesElement__covalent_radius_pyykko": [116.0, 114.0], "includesElement__covalent_radius_pyykko_double": [107.0, 109.0], "includesElement__covalent_radius_pyykko_triple": [102.0, 110.0], "includesElement__density": [2.3296, 3.1028], "includesElement__dipole_polarizability": [37.3, 21.0], "includesElement__dipole_polarizability_unc": [0.7, 1.0], "includesElement__discovery_year": [1824, 1826], "includesElement__electron_affinity": [1.389521, 3.363588], "includesElement__electronegativity_allred-rochow": [0.0003084126, 0.0005847953], "includesElement__electronegativity_cottrell-sutton": [0.1891451, 0.2581989], "includesElement__electronegativity_ghosh": [0.178503, 0.2412578], "includesElement__electronegativity_gordy": [0.03577586, 0.06666667], "includesElement__electronegativity_mulliken": [4.770602, 7.588699], "includesElement__electronegativity_nagle": [0.4750986, 0.6933613], "includesElement__electronegativity_pauling": [1.9, 2.96], "includesElement__electronegativity_sanderson": [0.3468158, 1.049026], "includesElement__en_ghosh": [0.178503, 0.2412578], "includesElement__en_pauling": [1.9, 2.96], "includesElement__evaporation_heat": [383.0, 29.56], "includesElement__fusion_heat": [50.6, 10.57], "includesElement__glawe_number": [85, 100], "includesElement__group_id": [14, 17], "includesElement__heat_of_formation": [450.0, 111.85], "includesElement__is_radioactive": [false], "includesElement__lattice_constant": [5.43, 6.67], "includesElement__mendeleev_number": [88, 108], "includesElement__molar_heat_capacity": [19.99, 75.69], "includesElement__period": [3, 4], "includesElement__pettifor_number": [85, 98], "includesElement__specific_heat_capacity": [0.712, 0.474], "includesElement__vdw_radius": [210.0, 185.0], "includesElement__vdw_radius_alvarez": [219.0, 186.0], "includesElement__vdw_radius_mm3": [229.0, 222.0], "includesElement__vdw_radius_uff": [429.5, 418.9], "includesElement__abundance_sea": [2.2, 67.3], "includesElement__c6_gb": [308.0, 187.0], "includesElement__covalent_radius_bragg": [117.0, 119.0], "includesElement__electronegativity_allen": [11.33, 15.88], "includesElement__en_allen": [11.33, 15.88], "includesElement__metallic_radius": [117.0], "includesElement__metallic_radius_c12": [138.0, 117.0], "includesElement__thermal_conductivity": [149.0, 0.005], "includesElement__vdw_radius_batsanov": [210.0, 190.0], "includesElement__c6": [305.0, 162.0], "includesElement__vdw_radius_dreiding": [427.0, 395.0], "includesElement__gas_basicity": [814.1, 531.2], "includesElement__proton_affinity": [837.0, 554.4], "includesElement__vdw_radius_bondi": [210.0, 183.0], "includesElement__vdw_radius_rt": [187.0], "formula": ["Br32Si8"], "spacegroup": ["205"], "thermalConductivity": [1.26789], "icsd": ["260324"], "band_gap": [4.1057], "density": [3.250516], "density_atomic": [35.52494], "deprecated": [false], "efermi": [-2.643258], "energy_above_hull": [0.0], "energy_per_atom": [-13.28106], "formation_energy_per_atom": [-1.005212], "is_gap_direct": [true], "is_magnetic": [false], "is_metal": [false], "is_stable": [true], "nelements": [2], "nsites": [40], "num_magnetic_sites": [0], "num_unique_magnetic_sites": [0], "theoretical": [false], "total_magnetization": [0.0], "total_magnetization_normalized_formula_units": [0.0], "total_magnetization_normalized_vol": [0.0], "uncorrected_energy_per_atom": [-13.28106], "volume": [1420.998], "cbm": [1.4526], "e_electronic": [2.343523], "e_ionic": [0.265288], "e_total": [2.608811], "equilibrium_reaction_energy_per_atom": [-0.2510448], "n": [1.530857], "vbm": [-2.6531]}