{"includesElement": ["", "Al", "N", "C"], "includesElement___series_id": [7, 1], "includesElement__abundance_crust": [82300.0, 19.0, 200.0], "includesElement__atomic_number": [13, 7, 6], "includesElement__atomic_radius": [125.0, 65.0, 70.0], "includesElement__atomic_radius_rahm": [239.0, 179.0, 190.0], "includesElement__atomic_volume": [10.0, 17.3, 5.3], "includesElement__atomic_weight": [26.98154, 14.007, 12.011], "includesElement__covalent_radius_cordero": [121.0, 71.0, 73.0], "includesElement__covalent_radius_pyykko": [126.0, 71.0, 75.0], "includesElement__covalent_radius_pyykko_double": [113.0, 60.0, 67.0], "includesElement__covalent_radius_pyykko_triple": [111.0, 54.0, 60.0], "includesElement__density": [2.7, 0.001145, 2.2], "includesElement__dipole_polarizability": [57.8, 7.4, 11.3], "includesElement__dipole_polarizability_unc": [1.0, 0.2], "includesElement__discovery_year": [1825, 1772], "includesElement__electron_affinity": [0.43283, -1.4, 1.262119], "includesElement__electronegativity_allred-rochow": [0.0002204586, 0.000773656, 0.0005777778], "includesElement__electronegativity_cottrell-sutton": [0.1666667, 0.2343706, 0.2081666], "includesElement__electronegativity_ghosh": [0.150078, 0.26493, 0.224776], "includesElement__electronegativity_gordy": [0.02777778, 0.05492958, 0.04333333], "includesElement__electronegativity_mulliken": [3.209299, 6.567065, 6.261208], "includesElement__electronegativity_nagle": [0.3730192, 0.8774979, 0.7073926], "includesElement__electronegativity_pauling": [1.61, 3.04, 2.55], "includesElement__electronegativity_sanderson": [0.2360927, 0.577482, 0.427525], "includesElement__en_ghosh": [0.150078, 0.26493, 0.224776], "includesElement__en_pauling": [1.61, 3.04, 2.55], "includesElement__evaporation_heat": [284.1], "includesElement__fusion_heat": [10.75], "includesElement__glawe_number": [78, 88, 87], "includesElement__group_id": [13, 15, 14], "includesElement__heat_of_formation": [330.9, 472.44, 716.87], "includesElement__is_radioactive": [false], "includesElement__lattice_constant": [4.05, 4.039, 3.57], "includesElement__mendeleev_number": [82, 93, 87], "includesElement__molar_heat_capacity": [24.2, 29.124, 8.517], "includesElement__period": [3, 2], "includesElement__pettifor_number": [80, 100, 95], "includesElement__specific_heat_capacity": [0.897, 1.04, 0.709], "includesElement__vdw_radius": [184.0, 155.0, 170.0], "includesElement__vdw_radius_alvarez": [225.0, 166.0, 177.0], "includesElement__vdw_radius_mm3": [236.0, 193.0, 204.0], "includesElement__vdw_radius_uff": [449.9, 366.0, 385.1], "includesElement__abundance_sea": [0.002, 0.5, 28.0], "includesElement__atomic_weight_uncertainty": [7e-07], "includesElement__c6_gb": [520.0, 25.7, 47.9], "includesElement__covalent_radius_bragg": [135.0, 65.0, 77.0], "includesElement__electronegativity_allen": [9.539, 18.13, 15.05], "includesElement__en_allen": [9.539, 18.13, 15.05], "includesElement__metallic_radius": [125.0], "includesElement__metallic_radius_c12": [143.0, 53.0, 86.0], "includesElement__thermal_conductivity": [237.0, 0.026, 1.59], "includesElement__vdw_radius_batsanov": [210.0, 160.0, 170.0], "includesElement__c6": [528.0, 24.2, 46.6], "includesElement__is_monoisotopic": [true], "includesElement__vdw_radius_dreiding": [439.0, 366.21, 389.83], "includesElement__vdw_radius_truhlar": [184.0], "includesElement__gas_basicity": [318.7], "includesElement__proton_affinity": [342.2], "includesElement__vdw_radius_bondi": [155.0, 170.0], "includesElement__vdw_radius_rt": [164.0, 177.0], "formula": ["Al10C6N2"], "spacegroup": ["186"], "thermalConductivity": [13.3806], "icsd": ["14398"], "band_gap": [0.8374], "density": [2.968048], "density_atomic": [11.49693], "deprecated": [false], "efermi": [7.621722], "energy_above_hull": [0.04771474], "energy_per_atom": [-6.458739], "formation_energy_per_atom": [-0.3751665], "is_gap_direct": [false], "is_magnetic": [false], "is_metal": [false], "is_stable": [false], "nelements": [3], "nsites": [18], "num_magnetic_sites": [0], "num_unique_magnetic_sites": [0], "theoretical": [false], "total_magnetization": [0.000159], "total_magnetization_normalized_formula_units": [7.95e-05], "total_magnetization_normalized_vol": [7.683211e-07], "uncorrected_energy_per_atom": [-6.418628], "volume": [206.9447], "cbm": [8.4077], "vbm": [7.5703]}