{"includesElement": ["", "Mg", "Si", "Dy"], "includesElement___series_id": [4, 5, 9], "includesElement__abundance_crust": [23300.0, 282000.0, 5.2], "includesElement__atomic_number": [12, 14, 66], "includesElement__atomic_radius": [150.0, 110.0, 175.0], "includesElement__atomic_radius_rahm": [240.0, 232.0, 275.0], "includesElement__atomic_volume": [14.0, 12.1, 19.0], "includesElement__atomic_weight": [24.305, 28.085, 162.5], "includesElement__covalent_radius_cordero": [141.0, 111.0, 192.0], "includesElement__covalent_radius_pyykko": [139.0, 116.0, 167.0], "includesElement__covalent_radius_pyykko_double": [132.0, 107.0, 133.0], "includesElement__covalent_radius_pyykko_triple": [127.0, 102.0], "includesElement__density": [1.74, 2.3296, 8.55], "includesElement__dipole_polarizability": [71.2, 37.3, 163.0], "includesElement__dipole_polarizability_unc": [0.4, 0.7, 15.0], "includesElement__discovery_year": [1808, 1824, 1886], "includesElement__electronegativity_allred-rochow": [0.0001475079, 0.0003084126, 0.0001021908], "includesElement__electronegativity_cottrell-sutton": [0.1431908, 0.1891451, 0.1306364], "includesElement__electronegativity_ghosh": [0.121644, 0.178503, 0.20333], "includesElement__electronegativity_gordy": [0.0205036, 0.03577586, 0.01706587], "includesElement__electronegativity_mulliken": [3.823117, 4.770602, 3.145525], "includesElement__electronegativity_nagle": [0.3039835, 0.4750986, 0.4191131], "includesElement__electronegativity_pauling": [1.31, 1.9, 1.22], "includesElement__electronegativity_sanderson": [0.1524211, 0.3468158, 0.5297338], "includesElement__en_ghosh": [0.121644, 0.178503, 0.20333], "includesElement__en_pauling": [1.31, 1.9, 1.22], "includesElement__evaporation_heat": [131.8, 383.0, 291.0], "includesElement__fusion_heat": [9.2, 50.6], "includesElement__glawe_number": [73, 85, 24], "includesElement__group_id": [2, 14], "includesElement__heat_of_formation": [147.1, 450.0, 290.4], "includesElement__is_radioactive": [false], "includesElement__lattice_constant": [3.21, 5.43, 3.59], "includesElement__mendeleev_number": [76, 88, 31], "includesElement__molar_heat_capacity": [24.869, 19.99, 28.16], "includesElement__period": [3, 6], "includesElement__pettifor_number": [73, 85, 25], "includesElement__specific_heat_capacity": [1.023, 0.712, 0.173], "includesElement__vdw_radius": [173.0, 210.0, 231.0], "includesElement__vdw_radius_alvarez": [251.0, 219.0, 287.0], "includesElement__vdw_radius_mm3": [243.0, 229.0, 290.0], "includesElement__vdw_radius_uff": [302.1, 429.5, 342.8], "includesElement__abundance_sea": [1290.0, 2.2, 9.1e-07], "includesElement__c6_gb": [629.0, 308.0, 2430.0], "includesElement__covalent_radius_bragg": [142.0, 117.0], "includesElement__electronegativity_allen": [7.646, 11.33], "includesElement__en_allen": [7.646, 11.33], "includesElement__metallic_radius": [136.0, 117.0], "includesElement__metallic_radius_c12": [160.0, 138.0], "includesElement__thermal_conductivity": [156.0, 149.0, 10.7], "includesElement__vdw_radius_batsanov": [220.0, 210.0], "includesElement__c6": [626.0, 305.0], "includesElement__gas_basicity": [797.3, 814.1], "includesElement__proton_affinity": [819.6, 837.0], "includesElement__vdw_radius_bondi": [173.0, 210.0], "includesElement__electron_affinity": [1.389521, 0.352], "includesElement__vdw_radius_dreiding": [427.0], "includesElement__atomic_weight_uncertainty": [0.001], "formula": ["Dy4Mg2Si4"], "spacegroup": ["127"], "thermalConductivity": [6.92877], "icsd": ["415117"], "band_gap": [0.0], "density": [6.251912], "density_atomic": [21.53929], "deprecated": [false], "efermi": [4.803028], "energy_above_hull": [0.0], "energy_per_atom": [-5.019421], "formation_energy_per_atom": [-0.6758494], "is_gap_direct": [false], "is_magnetic": [false], "is_metal": [true], "is_stable": [true], "nelements": [3], "nsites": [10], "num_magnetic_sites": [0], "num_unique_magnetic_sites": [0], "theoretical": [false], "total_magnetization": [0.0], "total_magnetization_normalized_formula_units": [0.0], "total_magnetization_normalized_vol": [0.0], "uncorrected_energy_per_atom": [-17.92052], "volume": [215.3929], "equilibrium_reaction_energy_per_atom": [-0.04379751]}