{"includesElement": ["", "Nb", "Te"], "includesElement___series_id": [8, 5], "includesElement__abundance_crust": [20.0, 0.001], "includesElement__atomic_number": [41, 52], "includesElement__atomic_radius": [145.0, 140.0], "includesElement__atomic_radius_rahm": [251.0, 242.0], "includesElement__atomic_volume": [10.8, 20.5], "includesElement__atomic_weight": [92.90637, 127.6], "includesElement__covalent_radius_cordero": [164.0, 138.0], "includesElement__covalent_radius_pyykko": [147.0, 136.0], "includesElement__covalent_radius_pyykko_double": [125.0, 128.0], "includesElement__covalent_radius_pyykko_triple": [116.0, 121.0], "includesElement__density": [8.57, 6.232], "includesElement__dipole_polarizability": [98.0, 38.0], "includesElement__dipole_polarizability_unc": [8.0, 4.0], "includesElement__discovery_year": [1801, 1782], "includesElement__electron_affinity": [0.917406, 1.970876], "includesElement__electronegativity_allred-rochow": [0.0001295756, 0.0003757569], "includesElement__electronegativity_cottrell-sutton": [0.1380131, 0.2260596], "includesElement__electronegativity_ghosh": [0.1280782, 0.2056992], "includesElement__electronegativity_gordy": [0.01904762, 0.05110294], "includesElement__electronegativity_mulliken": [3.838128, 5.490268], "includesElement__electronegativity_nagle": [0.3708924, 0.5404919], "includesElement__electronegativity_pauling": [1.6, 2.1], "includesElement__electronegativity_sanderson": [0.5561695, 0.8622506], "includesElement__en_ghosh": [0.1280782, 0.2056992], "includesElement__en_pauling": [1.6, 2.1], "includesElement__evaporation_heat": [680.0, 49.8], "includesElement__fusion_heat": [26.8, 17.91], "includesElement__glawe_number": [53, 94], "includesElement__group_id": [5, 16], "includesElement__heat_of_formation": [733.0, 196.6], "includesElement__is_radioactive": [false], "includesElement__lattice_constant": [3.3, 4.45], "includesElement__mendeleev_number": [48, 102], "includesElement__molar_heat_capacity": [24.6, 25.73], "includesElement__period": [5], "includesElement__pettifor_number": [52, 92], "includesElement__specific_heat_capacity": [0.265, 0.202], "includesElement__vdw_radius": [218.0, 206.0], "includesElement__vdw_radius_alvarez": [256.0, 199.0], "includesElement__vdw_radius_mm3": [243.0, 244.0], "includesElement__vdw_radius_uff": [316.5, 447.0], "includesElement__abundance_sea": [1e-05], "includesElement__atomic_weight_uncertainty": [2e-05, 0.03], "includesElement__c6_gb": [1140.0, 471.0], "includesElement__electronegativity_allen": [8.34, 12.76], "includesElement__en_allen": [8.34, 12.76], "includesElement__metallic_radius": [134.0, 137.0], "includesElement__metallic_radius_c12": [146.0, 160.0], "includesElement__thermal_conductivity": [53.7, 14.3], "includesElement__vdw_radius_batsanov": [215.0, 210.0], "includesElement__is_monoisotopic": [true], "includesElement__covalent_radius_bragg": [133.0], "includesElement__c6": [445.0], "includesElement__vdw_radius_dreiding": [423.0], "includesElement__vdw_radius_bondi": [206.0], "formula": ["Nb6Te2"], "spacegroup": ["223"], "thermalConductivity": [8.06703], "icsd": ["105244"], "band_gap": [0.0], "density": [9.11025], "density_atomic": [18.5151], "deprecated": [false], "efermi": [7.584435], "energy_above_hull": [0.04560749], "energy_per_atom": [-8.625081], "formation_energy_per_atom": [-0.2632755], "homogeneous_poisson": [0.284], "is_gap_direct": [false], "is_magnetic": [false], "is_metal": [true], "is_stable": [false], "nelements": [2], "nsites": [8], "num_magnetic_sites": [0], "num_unique_magnetic_sites": [0], "theoretical": [false], "total_magnetization": [1.9e-06], "total_magnetization_normalized_formula_units": [9.5e-07], "total_magnetization_normalized_vol": [1.282737e-08], "uncorrected_energy_per_atom": [-25.10878], "universal_anisotropy": [0.111], "volume": [148.1208]}