{"includesElement": ["", "Mg", "Cl"], "includesElement___series_id": [4, 6], "includesElement__abundance_crust": [23300.0, 145.0], "includesElement__atomic_number": [12, 17], "includesElement__atomic_radius": [150.0, 100.0], "includesElement__atomic_radius_rahm": [240.0, 206.0], "includesElement__atomic_volume": [14.0, 18.7], "includesElement__atomic_weight": [24.305, 35.45], "includesElement__covalent_radius_cordero": [141.0, 102.0], "includesElement__covalent_radius_pyykko": [139.0, 99.0], "includesElement__covalent_radius_pyykko_double": [132.0, 95.0], "includesElement__covalent_radius_pyykko_triple": [127.0, 93.0], "includesElement__density": [1.74, 0.002898], "includesElement__dipole_polarizability": [71.2, 14.6], "includesElement__dipole_polarizability_unc": [0.4, 0.1], "includesElement__discovery_year": [1808, 1774], "includesElement__electronegativity_allred-rochow": [0.0001475079, 0.0006223855], "includesElement__electronegativity_cottrell-sutton": [0.1431908, 0.248226], "includesElement__electronegativity_ghosh": [0.121644, 0.263803], "includesElement__electronegativity_gordy": [0.0205036, 0.06161616], "includesElement__electronegativity_mulliken": [3.823117, 8.290178], "includesElement__electronegativity_nagle": [0.3039835, 0.7826755], "includesElement__electronegativity_pauling": [1.31, 3.16], "includesElement__electronegativity_sanderson": [0.1524211, 0.8123773], "includesElement__en_ghosh": [0.121644, 0.263803], "includesElement__en_pauling": [1.31, 3.16], "includesElement__evaporation_heat": [131.8, 20.41], "includesElement__fusion_heat": [9.2, 6.41], "includesElement__glawe_number": [73, 101], "includesElement__group_id": [2, 17], "includesElement__heat_of_formation": [147.1, 121.302], "includesElement__is_radioactive": [false], "includesElement__lattice_constant": [3.21, 6.24], "includesElement__mendeleev_number": [76, 107], "includesElement__molar_heat_capacity": [24.869, 33.949], "includesElement__period": [3], "includesElement__pettifor_number": [73, 99], "includesElement__specific_heat_capacity": [1.023, 0.479], "includesElement__vdw_radius": [173.0, 175.0], "includesElement__vdw_radius_alvarez": [251.0, 182.0], "includesElement__vdw_radius_mm3": [243.0, 207.0], "includesElement__vdw_radius_uff": [302.1, 394.7], "includesElement__abundance_sea": [1290.0, 19400.0], "includesElement__c6_gb": [629.0, 97.1], "includesElement__covalent_radius_bragg": [142.0, 105.0], "includesElement__electronegativity_allen": [7.646, 16.97], "includesElement__en_allen": [7.646, 16.97], "includesElement__metallic_radius": [136.0], "includesElement__metallic_radius_c12": [160.0, 91.0], "includesElement__thermal_conductivity": [156.0, 0.009], "includesElement__vdw_radius_batsanov": [220.0, 180.0], "includesElement__c6": [626.0, 94.6], "includesElement__gas_basicity": [797.3, 490.1], "includesElement__proton_affinity": [819.6, 513.6], "includesElement__vdw_radius_bondi": [173.0, 175.0], "includesElement__electron_affinity": [3.612725], "includesElement__vdw_radius_dreiding": [395.03], "includesElement__vdw_radius_rt": [176.0], "formula": ["Cl2Mg1"], "spacegroup": ["115"], "thermalConductivity": [4.94904], "icsd": ["51245"], "band_gap": [4.906], "density": [1.803984], "density_atomic": [29.21341], "deprecated": [false], "efermi": [-1.293024], "energy_above_hull": [0.08375118], "energy_per_atom": [-3.947551], "formation_energy_per_atom": [-2.171703], "homogeneous_poisson": [0.215], "is_gap_direct": [false], "is_magnetic": [false], "is_metal": [false], "is_stable": [false], "nelements": [2], "nsites": [3], "num_magnetic_sites": [0], "num_unique_magnetic_sites": [0], "theoretical": [true], "total_magnetization": [0.0002817], "total_magnetization_normalized_formula_units": [0.0002817], "total_magnetization_normalized_vol": [3.214277e-06], "uncorrected_energy_per_atom": [-3.538217], "universal_anisotropy": [10.909], "volume": [87.64023], "cbm": [3.5209], "e_electronic": [2.431278], "e_ionic": [2.100791], "e_total": [4.532069], "n": [1.559256], "vbm": [-1.3851], "e_ij_max": [0.2375313]}