{"includesElement": ["", "Ti", "Rh", "B"], "includesElement___series_id": [8, 5], "includesElement__abundance_crust": [5650.0, 0.001, 10.0], "includesElement__atomic_number": [22, 45, 5], "includesElement__atomic_radius": [140.0, 135.0, 85.0], "includesElement__atomic_radius_rahm": [257.0, 233.0, 205.0], "includesElement__atomic_volume": [10.6, 8.3, 4.6], "includesElement__atomic_weight": [47.867, 102.9055, 10.81], "includesElement__covalent_radius_cordero": [160.0, 142.0, 84.0], "includesElement__covalent_radius_pyykko": [136.0, 125.0, 85.0], "includesElement__covalent_radius_pyykko_double": [117.0, 110.0, 78.0], "includesElement__covalent_radius_pyykko_triple": [108.0, 106.0, 73.0], "includesElement__density": [4.506, 12.4, 2.34], "includesElement__dipole_polarizability": [100.0, 66.0, 20.5], "includesElement__dipole_polarizability_unc": [10.0, 0.1], "includesElement__discovery_year": [1791, 1803, 1808], "includesElement__electron_affinity": [0.079, 1.137, 0.279723], "includesElement__electronegativity_allred-rochow": [0.0001703071, 0.0002176, 0.0003598616], "includesElement__electronegativity_cottrell-sutton": [0.1521899, 0.1649242, 0.1748949], "includesElement__electronegativity_ghosh": [0.1233637, 0.1408379, 0.184886], "includesElement__electronegativity_gordy": [0.02316176, 0.0272, 0.03058824], "includesElement__electronegativity_mulliken": [3.45356, 4.29795, 4.288871], "includesElement__electronegativity_nagle": [0.3419952, 0.5147142, 0.5269739], "includesElement__electronegativity_pauling": [1.54, 2.28, 2.04], "includesElement__electronegativity_sanderson": [0.4055462, 0.9761915, 0.2546274], "includesElement__en_ghosh": [0.1233637, 0.1408379, 0.184886], "includesElement__en_pauling": [1.54, 2.28, 2.04], "includesElement__evaporation_heat": [422.6, 494.0, 504.5], "includesElement__fusion_heat": [18.8, 21.8, 23.6], "includesElement__glawe_number": [51, 63, 86], "includesElement__group_id": [4, 9, 13], "includesElement__heat_of_formation": [473.0, 556.0, 565.0], "includesElement__is_radioactive": [false], "includesElement__lattice_constant": [2.95, 3.8, 8.73], "includesElement__mendeleev_number": [43, 64, 81], "includesElement__molar_heat_capacity": [25.06, 24.98, 11.087], "includesElement__period": [4, 5, 2], "includesElement__pettifor_number": [51, 66, 86], "includesElement__specific_heat_capacity": [0.523, 0.243, 1.026], "includesElement__vdw_radius": [211.0, 210.0, 192.0], "includesElement__vdw_radius_alvarez": [246.0, 244.0, 191.0], "includesElement__vdw_radius_mm3": [239.0, 234.0, 215.0], "includesElement__vdw_radius_uff": [317.5, 292.9, 408.3], "includesElement__abundance_sea": [0.001, 4.44], "includesElement__atomic_weight_uncertainty": [0.001, 2e-05], "includesElement__c6_gb": [1200.0, 708.0, 99.2], "includesElement__covalent_radius_bragg": [140.0], "includesElement__electronegativity_allen": [8.17, 9.259, 12.13], "includesElement__en_allen": [8.17, 9.259, 12.13], "includesElement__metallic_radius": [132.0, 125.0, 80.0], "includesElement__metallic_radius_c12": [147.0, 134.0, 98.0], "includesElement__thermal_conductivity": [21.9, 150.0, 27.4], "includesElement__vdw_radius_batsanov": [215.0, 200.0, 180.0], "includesElement__c6": [1044.0, 99.5], "includesElement__gas_basicity": [853.7, 745.4], "includesElement__proton_affinity": [876.0, 768.0], "includesElement__is_monoisotopic": [true], "includesElement__vdw_radius_dreiding": [402.0], "includesElement__vdw_radius_truhlar": [192.0], "formula": ["B1Rh6Ti2"], "spacegroup": ["225"], "thermalConductivity": [7.97306], "icsd": ["415337"], "band_gap": [0.0], "density": [9.964966], "density_atomic": [13.40467], "deprecated": [false], "efermi": [7.025997], "energy_above_hull": [0.0], "energy_per_atom": [-8.080395], "formation_energy_per_atom": [-0.6741482], "homogeneous_poisson": [0.289], "is_gap_direct": [false], "is_magnetic": [false], "is_metal": [true], "is_stable": [true], "nelements": [3], "nsites": [9], "num_magnetic_sites": [0], "num_unique_magnetic_sites": [0], "theoretical": [false], "total_magnetization": [2.5e-06], "total_magnetization_normalized_formula_units": [2.5e-06], "total_magnetization_normalized_vol": [2.072246e-08], "uncorrected_energy_per_atom": [-20.50853], "universal_anisotropy": [0.066], "volume": [120.642], "equilibrium_reaction_energy_per_atom": [-0.05865142]}