{"includesElement": ["", "As", "Te"], "includesElement___series_id": [5], "includesElement__abundance_crust": [1.8, 0.001], "includesElement__atomic_number": [33, 52], "includesElement__atomic_radius": [115.0, 140.0], "includesElement__atomic_radius_rahm": [231.0, 242.0], "includesElement__atomic_volume": [13.1, 20.5], "includesElement__atomic_weight": [74.92159, 127.6], "includesElement__covalent_radius_cordero": [119.0, 138.0], "includesElement__covalent_radius_pyykko": [121.0, 136.0], "includesElement__covalent_radius_pyykko_double": [114.0, 128.0], "includesElement__covalent_radius_pyykko_triple": [106.0, 121.0], "includesElement__density": [5.75, 6.232], "includesElement__dipole_polarizability": [30.0, 38.0], "includesElement__dipole_polarizability_unc": [1.0, 4.0], "includesElement__electron_affinity": [0.804, 1.970876], "includesElement__electronegativity_allred-rochow": [0.0004302985, 0.0003757569], "includesElement__electronegativity_cottrell-sutton": [0.22818, 0.2260596], "includesElement__electronegativity_ghosh": [0.2068208, 0.2056992], "includesElement__electronegativity_gordy": [0.05206612, 0.05110294], "includesElement__electronegativity_mulliken": [5.2965, 5.490268], "includesElement__electronegativity_nagle": [0.5503212, 0.5404919], "includesElement__electronegativity_pauling": [2.18, 2.1], "includesElement__electronegativity_sanderson": [0.8253373, 0.8622506], "includesElement__en_ghosh": [0.2068208, 0.2056992], "includesElement__en_pauling": [2.18, 2.1], "includesElement__evaporation_heat": [32.4, 49.8], "includesElement__glawe_number": [90, 94], "includesElement__group_id": [15, 16], "includesElement__heat_of_formation": [302.5, 196.6], "includesElement__is_radioactive": [false], "includesElement__lattice_constant": [4.13, 4.45], "includesElement__mendeleev_number": [95, 102], "includesElement__molar_heat_capacity": [24.64, 25.73], "includesElement__period": [4, 5], "includesElement__pettifor_number": [89, 92], "includesElement__specific_heat_capacity": [0.329, 0.202], "includesElement__vdw_radius": [185.0, 206.0], "includesElement__vdw_radius_alvarez": [188.0, 199.0], "includesElement__vdw_radius_mm3": [236.0, 244.0], "includesElement__vdw_radius_uff": [423.0, 447.0], "includesElement__abundance_sea": [0.0037], "includesElement__atomic_weight_uncertainty": [6e-06, 0.03], "includesElement__c6_gb": [260.0, 471.0], "includesElement__covalent_radius_bragg": [126.0, 133.0], "includesElement__electronegativity_allen": [13.08, 12.76], "includesElement__en_allen": [13.08, 12.76], "includesElement__metallic_radius": [121.0, 137.0], "includesElement__metallic_radius_c12": [148.0, 160.0], "includesElement__vdw_radius_batsanov": [205.0, 210.0], "includesElement__c6": [246.0, 445.0], "includesElement__is_monoisotopic": [true], "includesElement__vdw_radius_dreiding": [415.0, 423.0], "includesElement__vdw_radius_bondi": [185.0, 206.0], "includesElement__discovery_year": [1782], "includesElement__fusion_heat": [17.91], "includesElement__thermal_conductivity": [14.3], "formula": ["As1Te1"], "spacegroup": ["225"], "thermalConductivity": [4.06999], "icsd": ["44071"], "band_gap": [0.0], "density": [6.433465], "density_atomic": [26.13638], "deprecated": [false], "efermi": [6.194935], "energy_above_hull": [0.09081346], "energy_per_atom": [-19.97282], "formation_energy_per_atom": [0.08955618], "homogeneous_poisson": [0.303], "is_gap_direct": [false], "is_magnetic": [false], "is_metal": [true], "is_stable": [false], "nelements": [2], "nsites": [2], "num_magnetic_sites": [0], "num_unique_magnetic_sites": [0], "theoretical": [false], "total_magnetization": [0.0084145], "total_magnetization_normalized_formula_units": [0.0084145], "total_magnetization_normalized_vol": [0.0001609729], "uncorrected_energy_per_atom": [-3.822818], "universal_anisotropy": [2.971], "volume": [52.27277]}