{"includesElement": ["", "Al", "Pt", "Hf"], "includesElement___series_id": [7, 8], "includesElement__abundance_crust": [82300.0, 0.005, 3.0], "includesElement__atomic_number": [13, 78, 72], "includesElement__atomic_radius": [125.0, 135.0, 155.0], "includesElement__atomic_radius_rahm": [239.0, 230.0, 264.0], "includesElement__atomic_volume": [10.0, 9.1, 13.6], "includesElement__atomic_weight": [26.98154, 195.084, 178.49], "includesElement__covalent_radius_cordero": [121.0, 136.0, 175.0], "includesElement__covalent_radius_pyykko": [126.0, 123.0, 152.0], "includesElement__covalent_radius_pyykko_double": [113.0, 112.0, 128.0], "includesElement__covalent_radius_pyykko_triple": [111.0, 110.0, 122.0], "includesElement__density": [2.7, 21.5, 13.3], "includesElement__dipole_polarizability": [57.8, 48.0, 103.0], "includesElement__dipole_polarizability_unc": [1.0, 4.0, 6.0], "includesElement__discovery_year": [1825, 1735, 1923], "includesElement__electron_affinity": [0.43283, 2.128, 0.014], "includesElement__electronegativity_allred-rochow": [0.0002204586, 0.0002346487, 0.00013634], "includesElement__electronegativity_cottrell-sutton": [0.1666667, 0.1698876, 0.1439572], "includesElement__electronegativity_ghosh": [0.150078, 0.25691, 0.229987], "includesElement__electronegativity_gordy": [0.02777778, 0.02886179, 0.02072368], "includesElement__electronegativity_mulliken": [3.209299, 5.543415, 3.419535], "includesElement__electronegativity_nagle": [0.3730192, 0.5928156, 0.3386421], "includesElement__electronegativity_pauling": [1.61, 2.2, 1.3], "includesElement__electronegativity_sanderson": [0.2360927, 1.45101, 0.7352125], "includesElement__en_ghosh": [0.150078, 0.25691, 0.229987], "includesElement__en_pauling": [1.61, 2.2, 1.3], "includesElement__evaporation_heat": [284.1, 470.0, 575.0], "includesElement__fusion_heat": [10.75, 21.76, 25.1], "includesElement__glawe_number": [78, 64, 50], "includesElement__group_id": [13, 10, 4], "includesElement__heat_of_formation": [330.9, 565.7, 618.4], "includesElement__is_radioactive": [false], "includesElement__lattice_constant": [4.05, 3.92, 3.2], "includesElement__mendeleev_number": [82, 69, 45], "includesElement__molar_heat_capacity": [24.2, 25.86, 25.73], "includesElement__period": [3, 6], "includesElement__pettifor_number": [80, 68, 50], "includesElement__specific_heat_capacity": [0.897, 0.133, 0.144], "includesElement__vdw_radius": [184.0, 213.0, 223.0], "includesElement__vdw_radius_alvarez": [225.0, 229.0, 263.0], "includesElement__vdw_radius_mm3": [236.0, 239.0, 253.0], "includesElement__vdw_radius_uff": [449.9, 275.4, 314.1], "includesElement__abundance_sea": [0.002, 7e-06], "includesElement__atomic_weight_uncertainty": [7e-07, 0.009, 0.02], "includesElement__c6_gb": [520.0, 470.0, 1040.0], "includesElement__covalent_radius_bragg": [135.0], "includesElement__electronegativity_allen": [9.539, 10.16, 6.83], "includesElement__en_allen": [9.539, 10.16, 6.83], "includesElement__metallic_radius": [125.0, 130.0, 144.0], "includesElement__metallic_radius_c12": [143.0, 139.0, 159.0], "includesElement__thermal_conductivity": [237.0, 71.6, 23.0], "includesElement__vdw_radius_batsanov": [210.0, 205.0, 225.0], "includesElement__c6": [528.0], "includesElement__is_monoisotopic": [true], "includesElement__vdw_radius_dreiding": [439.0], "includesElement__vdw_radius_truhlar": [184.0], "formula": ["Al6Hf6Pt6"], "spacegroup": ["190"], "thermalConductivity": [3.18944], "icsd": ["156267"], "band_gap": [0.0], "density": [12.83789], "density_atomic": [17.27018], "deprecated": [false], "efermi": [6.934193], "energy_above_hull": [0.0], "energy_per_atom": [-35.6018], "formation_energy_per_atom": [-1.14472], "homogeneous_poisson": [0.314], "is_gap_direct": [false], "is_magnetic": [false], "is_metal": [true], "is_stable": [true], "nelements": [3], "nsites": [18], "num_magnetic_sites": [0], "num_unique_magnetic_sites": [0], "theoretical": [false], "total_magnetization": [4e-07], "total_magnetization_normalized_formula_units": [6.666667e-08], "total_magnetization_normalized_vol": [1.286739e-09], "uncorrected_energy_per_atom": [-35.6018], "universal_anisotropy": [1.088], "volume": [310.8633], "equilibrium_reaction_energy_per_atom": [-0.08420038]}