{"includesElement": ["", "Ga", "Pt", "Hf"], "includesElement___series_id": [7, 8], "includesElement__abundance_crust": [19.0, 0.005, 3.0], "includesElement__atomic_number": [31, 78, 72], "includesElement__atomic_radius": [130.0, 135.0, 155.0], "includesElement__atomic_radius_rahm": [233.0, 230.0, 264.0], "includesElement__atomic_volume": [11.8, 9.1, 13.6], "includesElement__atomic_weight": [69.723, 195.084, 178.49], "includesElement__covalent_radius_cordero": [122.0, 136.0, 175.0], "includesElement__covalent_radius_pyykko": [124.0, 123.0, 152.0], "includesElement__covalent_radius_pyykko_double": [117.0, 112.0, 128.0], "includesElement__covalent_radius_pyykko_triple": [121.0, 110.0, 122.0], "includesElement__density": [5.91, 21.5, 13.3], "includesElement__dipole_polarizability": [50.0, 48.0, 103.0], "includesElement__dipole_polarizability_unc": [3.0, 4.0, 6.0], "includesElement__discovery_year": [1875, 1735, 1923], "includesElement__electron_affinity": [0.43, 2.128, 0.014], "includesElement__electronegativity_allred-rochow": [0.0003251821, 0.0002346487, 0.00013634], "includesElement__electronegativity_cottrell-sutton": [0.2008048, 0.1698876, 0.1439572], "includesElement__electronegativity_ghosh": [0.1723773, 0.25691, 0.229987], "includesElement__electronegativity_gordy": [0.04032258, 0.02886179, 0.02072368], "includesElement__electronegativity_mulliken": [3.214651, 5.543415, 3.419535], "includesElement__electronegativity_nagle": [0.3914868, 0.5928156, 0.3386421], "includesElement__electronegativity_pauling": [1.81, 2.2, 1.3], "includesElement__electronegativity_sanderson": [0.720541, 1.45101, 0.7352125], "includesElement__en_ghosh": [0.1723773, 0.25691, 0.229987], "includesElement__en_pauling": [1.81, 2.2, 1.3], "includesElement__evaporation_heat": [270.3, 470.0, 575.0], "includesElement__fusion_heat": [5.59, 21.76, 25.1], "includesElement__glawe_number": [79, 64, 50], "includesElement__group_id": [13, 10, 4], "includesElement__heat_of_formation": [271.96, 565.7, 618.4], "includesElement__is_radioactive": [false], "includesElement__lattice_constant": [4.51, 3.92, 3.2], "includesElement__mendeleev_number": [83, 69, 45], "includesElement__molar_heat_capacity": [26.03, 25.86, 25.73], "includesElement__period": [4, 6], "includesElement__pettifor_number": [81, 68, 50], "includesElement__specific_heat_capacity": [0.373, 0.133, 0.144], "includesElement__vdw_radius": [187.0, 213.0, 223.0], "includesElement__vdw_radius_alvarez": [232.0, 229.0, 263.0], "includesElement__vdw_radius_mm3": [246.0, 239.0, 253.0], "includesElement__vdw_radius_uff": [438.3, 275.4, 314.1], "includesElement__abundance_sea": [3e-05, 7e-06], "includesElement__atomic_weight_uncertainty": [0.001, 0.009, 0.02], "includesElement__c6_gb": [456.0, 470.0, 1040.0], "includesElement__electronegativity_allen": [10.39, 10.16, 6.83], "includesElement__en_allen": [10.39, 10.16, 6.83], "includesElement__metallic_radius": [125.0, 130.0, 144.0], "includesElement__metallic_radius_c12": [140.0, 139.0, 159.0], "includesElement__thermal_conductivity": [28.1, 71.6, 23.0], "includesElement__vdw_radius_batsanov": [210.0, 205.0, 225.0], "includesElement__c6": [498.0], "includesElement__vdw_radius_dreiding": [439.0], "includesElement__vdw_radius_bondi": [187.0], "formula": ["Ga6Hf6Pt6"], "spacegroup": ["189"], "thermalConductivity": [3.01923], "icsd": ["156268"], "band_gap": [0.0], "density": [14.32965], "density_atomic": [17.12328], "deprecated": [false], "efermi": [6.019101], "energy_above_hull": [0.0], "energy_per_atom": [-7.317515], "formation_energy_per_atom": [-0.965375], "is_gap_direct": [false], "is_magnetic": [false], "is_metal": [true], "is_stable": [true], "nelements": [3], "nsites": [18], "num_magnetic_sites": [0], "num_unique_magnetic_sites": [0], "theoretical": [false], "total_magnetization": [1e-07], "total_magnetization_normalized_formula_units": [1.666667e-08], "total_magnetization_normalized_vol": [3.244445e-10], "uncorrected_energy_per_atom": [-37.09524], "volume": [308.2191], "equilibrium_reaction_energy_per_atom": [-0.1310817]}