{"includesElement": ["", "Th", "Ru"], "includesElement___series_id": [10, 8], "includesElement__abundance_crust": [9.6, 0.001], "includesElement__atomic_number": [90, 44], "includesElement__atomic_radius": [180.0, 130.0], "includesElement__atomic_radius_rahm": [288.0, 237.0], "includesElement__atomic_volume": [19.8, 8.3], "includesElement__atomic_weight": [232.0377, 101.07], "includesElement__covalent_radius_cordero": [206.0, 146.0], "includesElement__covalent_radius_pyykko": [175.0, 125.0], "includesElement__covalent_radius_pyykko_double": [143.0, 114.0], "includesElement__covalent_radius_pyykko_triple": [136.0, 103.0], "includesElement__density": [11.7, 12.1], "includesElement__dipole_polarizability": [217.0, 72.0], "includesElement__dipole_polarizability_unc": [54.0, 10.0], "includesElement__discovery_year": [1828, 1844], "includesElement__electronegativity_allred-rochow": [0.0001028571, 0.000208], "includesElement__electronegativity_cottrell-sutton": [0.1341641, 0.1612452], "includesElement__electronegativity_ghosh": [0.10277, 0.1376494], "includesElement__electronegativity_gordy": [0.018, 0.026], "includesElement__electronegativity_mulliken": [3.15335, 4.20525], "includesElement__electronegativity_nagle": [0.2641598, 0.4807499], "includesElement__electronegativity_pauling": [1.3, 2.2], "includesElement__electronegativity_sanderson": [0.5557019, 0.9579373], "includesElement__en_ghosh": [0.10277, 0.1376494], "includesElement__en_pauling": [1.3, 2.2], "includesElement__evaporation_heat": [513.7], "includesElement__fusion_heat": [16.11, 25.5], "includesElement__glawe_number": [34, 61], "includesElement__heat_of_formation": [602.0, 650.6], "includesElement__is_radioactive": [true, false], "includesElement__lattice_constant": [5.08, 2.7], "includesElement__mendeleev_number": [16, 60], "includesElement__molar_heat_capacity": [27.32, 24.06], "includesElement__period": [7, 5], "includesElement__pettifor_number": [47, 63], "includesElement__specific_heat_capacity": [0.118, 0.238], "includesElement__vdw_radius": [245.0, 213.0], "includesElement__vdw_radius_alvarez": [293.0, 246.0], "includesElement__vdw_radius_mm3": [274.0, 234.0], "includesElement__vdw_radius_uff": [339.6, 296.3], "includesElement__abundance_sea": [1e-06, 7e-07], "includesElement__atomic_weight_uncertainty": [0.0004, 0.02], "includesElement__vdw_radius_batsanov": [240.0, 205.0], "includesElement__electron_affinity": [1.05], "includesElement__group_id": [8], "includesElement__c6_gb": [809.0], "includesElement__electronegativity_allen": [9.1], "includesElement__en_allen": [9.1], "includesElement__metallic_radius": [125.0], "includesElement__metallic_radius_c12": [134.0], "includesElement__thermal_conductivity": [117.0], "includesElement__gas_basicity": [751.4], "includesElement__proton_affinity": [774.0], "formula": ["Ru6Th14"], "spacegroup": ["186"], "thermalConductivity": [1.25987], "icsd": ["150668"], "band_gap": [0.0], "density": [11.78328], "density_atomic": [27.16264], "deprecated": [false], "efermi": [7.6045], "energy_above_hull": [0.0], "energy_per_atom": [-59.48388], "formation_energy_per_atom": [-0.4238365], "is_gap_direct": [false], "is_magnetic": [false], "is_metal": [true], "is_stable": [true], "nelements": [2], "nsites": [20], "num_magnetic_sites": [0], "num_unique_magnetic_sites": [0], "theoretical": [false], "total_magnetization": [0.0], "total_magnetization_normalized_formula_units": [0.0], "total_magnetization_normalized_vol": [0.0], "uncorrected_energy_per_atom": [-59.48388], "volume": [543.2529], "equilibrium_reaction_energy_per_atom": [-0.09501576]}