{"includesElement": ["", "Cs", "Te"], "includesElement___series_id": [3, 5], "includesElement__abundance_crust": [3.0, 0.001], "includesElement__atomic_number": [55, 52], "includesElement__atomic_radius": [260.0, 140.0], "includesElement__atomic_radius_rahm": [249.0, 242.0], "includesElement__atomic_volume": [70.0, 20.5], "includesElement__atomic_weight": [132.9055, 127.6], "includesElement__covalent_radius_cordero": [244.0, 138.0], "includesElement__covalent_radius_pyykko": [232.0, 136.0], "includesElement__covalent_radius_pyykko_double": [209.0, 128.0], "includesElement__density": [1.873, 6.232], "includesElement__dipole_polarizability": [400.9, 38.0], "includesElement__dipole_polarizability_unc": [0.7, 4.0], "includesElement__discovery_year": [1860, 1782], "includesElement__electron_affinity": [0.471626, 1.970876], "includesElement__electronegativity_allred-rochow": [4.087396e-05, 0.0003757569], "includesElement__electronegativity_cottrell-sutton": [0.09737946, 0.2260596], "includesElement__electronegativity_ghosh": [0.1542125, 0.2056992], "includesElement__electronegativity_gordy": [0.009482759, 0.05110294], "includesElement__electronegativity_mulliken": [2.182766, 5.490268], "includesElement__electronegativity_nagle": [0.1356192, 0.5404919], "includesElement__electronegativity_pauling": [0.79, 2.1], "includesElement__electronegativity_sanderson": [0.1814531, 0.8622506], "includesElement__en_ghosh": [0.1542125, 0.2056992], "includesElement__en_pauling": [0.79, 2.1], "includesElement__evaporation_heat": [68.3, 49.8], "includesElement__fusion_heat": [2.09, 17.91], "includesElement__glawe_number": [8, 94], "includesElement__group_id": [1, 16], "includesElement__heat_of_formation": [76.5, 196.6], "includesElement__is_radioactive": [false], "includesElement__lattice_constant": [6.05, 4.45], "includesElement__mendeleev_number": [5, 102], "includesElement__molar_heat_capacity": [32.21, 25.73], "includesElement__period": [6, 5], "includesElement__pettifor_number": [8, 92], "includesElement__specific_heat_capacity": [0.242, 0.202], "includesElement__vdw_radius": [343.0, 206.0], "includesElement__vdw_radius_alvarez": [348.0, 199.0], "includesElement__vdw_radius_mm3": [344.0, 244.0], "includesElement__vdw_radius_uff": [451.7, 447.0], "includesElement__abundance_sea": [0.0003], "includesElement__atomic_weight_uncertainty": [6e-08, 0.03], "includesElement__c6_gb": [6660.0, 471.0], "includesElement__covalent_radius_bragg": [237.0, 133.0], "includesElement__electronegativity_allen": [3.898, 12.76], "includesElement__en_allen": [3.898, 12.76], "includesElement__metallic_radius": [235.0, 137.0], "includesElement__metallic_radius_c12": [267.0, 160.0], "includesElement__thermal_conductivity": [35.9, 14.3], "includesElement__vdw_radius_batsanov": [300.0, 210.0], "includesElement__is_monoisotopic": [true], "includesElement__vdw_radius_truhlar": [343.0], "includesElement__covalent_radius_pyykko_triple": [121.0], "includesElement__c6": [445.0], "includesElement__vdw_radius_dreiding": [423.0], "includesElement__vdw_radius_bondi": [206.0], "formula": ["Cs8Te4"], "spacegroup": ["62"], "thermalConductivity": [0.151365], "icsd": ["36501"], "band_gap": [1.774], "density": [4.077192], "density_atomic": [53.40883], "deprecated": [false], "efermi": [1.233866], "energy_above_hull": [0.0], "energy_per_atom": [-2.776968], "formation_energy_per_atom": [-1.130046], "is_gap_direct": [true], "is_magnetic": [false], "is_metal": [false], "is_stable": [true], "nelements": [2], "nsites": [12], "num_magnetic_sites": [0], "num_unique_magnetic_sites": [0], "theoretical": [false], "total_magnetization": [0.0], "total_magnetization_normalized_formula_units": [0.0], "total_magnetization_normalized_vol": [0.0], "uncorrected_energy_per_atom": [-26.43148], "volume": [640.906], "cbm": [2.9517], "e_electronic": [4.086015], "e_ionic": [6.088346], "e_total": [10.17436], "equilibrium_reaction_energy_per_atom": [-0.4254761], "n": [2.021389], "vbm": [1.1777]}