{"includesElement": ["", "Cl", "Cs"], "includesElement___series_id": [6, 3], "includesElement__abundance_crust": [145.0, 3.0], "includesElement__atomic_number": [17, 55], "includesElement__atomic_radius": [100.0, 260.0], "includesElement__atomic_radius_rahm": [206.0, 249.0], "includesElement__atomic_volume": [18.7, 70.0], "includesElement__atomic_weight": [35.45, 132.9055], "includesElement__covalent_radius_cordero": [102.0, 244.0], "includesElement__covalent_radius_pyykko": [99.0, 232.0], "includesElement__covalent_radius_pyykko_double": [95.0, 209.0], "includesElement__covalent_radius_pyykko_triple": [93.0], "includesElement__density": [0.002898, 1.873], "includesElement__dipole_polarizability": [14.6, 400.9], "includesElement__dipole_polarizability_unc": [0.1, 0.7], "includesElement__discovery_year": [1774, 1860], "includesElement__electron_affinity": [3.612725, 0.471626], "includesElement__electronegativity_allred-rochow": [0.0006223855, 4.087396e-05], "includesElement__electronegativity_cottrell-sutton": [0.248226, 0.09737946], "includesElement__electronegativity_ghosh": [0.263803, 0.1542125], "includesElement__electronegativity_gordy": [0.06161616, 0.009482759], "includesElement__electronegativity_mulliken": [8.290178, 2.182766], "includesElement__electronegativity_nagle": [0.7826755, 0.1356192], "includesElement__electronegativity_pauling": [3.16, 0.79], "includesElement__electronegativity_sanderson": [0.8123773, 0.1814531], "includesElement__en_ghosh": [0.263803, 0.1542125], "includesElement__en_pauling": [3.16, 0.79], "includesElement__evaporation_heat": [20.41, 68.3], "includesElement__fusion_heat": [6.41, 2.09], "includesElement__glawe_number": [101, 8], "includesElement__group_id": [17, 1], "includesElement__heat_of_formation": [121.302, 76.5], "includesElement__is_radioactive": [false], "includesElement__lattice_constant": [6.24, 6.05], "includesElement__mendeleev_number": [107, 5], "includesElement__molar_heat_capacity": [33.949, 32.21], "includesElement__period": [3, 6], "includesElement__pettifor_number": [99, 8], "includesElement__specific_heat_capacity": [0.479, 0.242], "includesElement__vdw_radius": [175.0, 343.0], "includesElement__vdw_radius_alvarez": [182.0, 348.0], "includesElement__vdw_radius_mm3": [207.0, 344.0], "includesElement__vdw_radius_uff": [394.7, 451.7], "includesElement__abundance_sea": [19400.0, 0.0003], "includesElement__c6_gb": [97.1, 6660.0], "includesElement__covalent_radius_bragg": [105.0, 237.0], "includesElement__electronegativity_allen": [16.97, 3.898], "includesElement__en_allen": [16.97, 3.898], "includesElement__metallic_radius_c12": [91.0, 267.0], "includesElement__thermal_conductivity": [0.009, 35.9], "includesElement__vdw_radius_batsanov": [180.0, 300.0], "includesElement__c6": [94.6], "includesElement__vdw_radius_dreiding": [395.03], "includesElement__gas_basicity": [490.1], "includesElement__proton_affinity": [513.6], "includesElement__vdw_radius_bondi": [175.0], "includesElement__vdw_radius_rt": [176.0], "includesElement__atomic_weight_uncertainty": [6e-08], "includesElement__metallic_radius": [235.0], "includesElement__is_monoisotopic": [true], "includesElement__vdw_radius_truhlar": [343.0], "formula": ["Cl1Cs1"], "spacegroup": ["225"], "thermalConductivity": [0.470616], "icsd": ["52274"], "band_gap": [4.8482], "density": [3.242005], "density_atomic": [43.11619], "deprecated": [false], "efermi": [-1.325681], "energy_above_hull": [0.00714125], "energy_per_atom": [-17.7949], "formation_energy_per_atom": [-2.16908], "homogeneous_poisson": [0.286], "is_gap_direct": [false], "is_magnetic": [false], "is_metal": [false], "is_stable": [false], "nelements": [2], "nsites": [2], "num_magnetic_sites": [0], "num_unique_magnetic_sites": [0], "theoretical": [false], "total_magnetization": [0.0], "total_magnetization_normalized_formula_units": [0.0], "total_magnetization_normalized_vol": [0.0], "uncorrected_energy_per_atom": [-17.7949], "universal_anisotropy": [1.308], "volume": [86.23239], "cbm": [3.2876], "e_electronic": [2.631969], "e_ionic": [2.808639], "e_total": [5.440608], "n": [1.622334], "vbm": [-1.5606]}