{"includesElement": ["", "Ga", "Zr", "Pt"], "includesElement___series_id": [7, 8], "includesElement__abundance_crust": [19.0, 165.0, 0.005], "includesElement__atomic_number": [31, 40, 78], "includesElement__atomic_radius": [130.0, 155.0, 135.0], "includesElement__atomic_radius_rahm": [233.0, 269.0, 230.0], "includesElement__atomic_volume": [11.8, 14.1, 9.1], "includesElement__atomic_weight": [69.723, 91.224, 195.084], "includesElement__covalent_radius_cordero": [122.0, 175.0, 136.0], "includesElement__covalent_radius_pyykko": [124.0, 154.0, 123.0], "includesElement__covalent_radius_pyykko_double": [117.0, 127.0, 112.0], "includesElement__covalent_radius_pyykko_triple": [121.0, 110.0], "includesElement__density": [5.91, 6.52, 21.5], "includesElement__dipole_polarizability": [50.0, 112.0, 48.0], "includesElement__dipole_polarizability_unc": [3.0, 13.0, 4.0], "includesElement__discovery_year": [1875, 1789, 1735], "includesElement__electron_affinity": [0.43, 0.426, 2.128], "includesElement__electronegativity_allred-rochow": [0.0003251821, 0.0001328217, 0.0002346487], "includesElement__electronegativity_cottrell-sutton": [0.2008048, 0.1430194, 0.1698876], "includesElement__electronegativity_ghosh": [0.1723773, 0.1248887, 0.25691], "includesElement__electronegativity_gordy": [0.04032258, 0.02045455, 0.02886179], "includesElement__electronegativity_mulliken": [3.214651, 3.52995, 5.543415], "includesElement__electronegativity_nagle": [0.3914868, 0.3293169, 0.5928156], "includesElement__electronegativity_pauling": [1.81, 1.33, 2.2], "includesElement__electronegativity_sanderson": [0.720541, 0.4744467, 1.45101], "includesElement__en_ghosh": [0.1723773, 0.1248887, 0.25691], "includesElement__en_pauling": [1.81, 1.33, 2.2], "includesElement__evaporation_heat": [270.3, 567.0, 470.0], "includesElement__fusion_heat": [5.59, 19.2, 21.76], "includesElement__glawe_number": [79, 49, 64], "includesElement__group_id": [13, 4, 10], "includesElement__heat_of_formation": [271.96, 610.0, 565.7], "includesElement__is_radioactive": [false], "includesElement__lattice_constant": [4.51, 3.23, 3.92], "includesElement__mendeleev_number": [83, 44, 69], "includesElement__molar_heat_capacity": [26.03, 25.36, 25.86], "includesElement__period": [4, 5, 6], "includesElement__pettifor_number": [81, 49, 68], "includesElement__specific_heat_capacity": [0.373, 0.278, 0.133], "includesElement__vdw_radius": [187.0, 223.0, 213.0], "includesElement__vdw_radius_alvarez": [232.0, 252.0, 229.0], "includesElement__vdw_radius_mm3": [246.0, 254.0, 239.0], "includesElement__vdw_radius_uff": [438.3, 312.4, 275.4], "includesElement__abundance_sea": [3e-05], "includesElement__atomic_weight_uncertainty": [0.001, 0.002, 0.009], "includesElement__c6_gb": [456.0, 1360.0, 470.0], "includesElement__electronegativity_allen": [10.39, 7.808, 10.16], "includesElement__en_allen": [10.39, 7.808, 10.16], "includesElement__metallic_radius": [125.0, 145.0, 130.0], "includesElement__metallic_radius_c12": [140.0, 160.0, 139.0], "includesElement__thermal_conductivity": [28.1, 22.7, 71.6], "includesElement__vdw_radius_batsanov": [210.0, 230.0, 205.0], "includesElement__c6": [498.0], "includesElement__vdw_radius_dreiding": [439.0], "includesElement__vdw_radius_bondi": [187.0], "formula": ["Ga6Pt6Zr6"], "spacegroup": ["190"], "thermalConductivity": [3.05539], "icsd": ["152132"], "band_gap": [0.0], "density": [11.22818], "density_atomic": [17.55118], "deprecated": [false], "efermi": [5.658485], "energy_above_hull": [0.0], "energy_per_atom": [-6.857634], "formation_energy_per_atom": [-0.9753242], "is_gap_direct": [false], "is_magnetic": [false], "is_metal": [true], "is_stable": [true], "nelements": [3], "nsites": [18], "num_magnetic_sites": [0], "num_unique_magnetic_sites": [0], "theoretical": [false], "total_magnetization": [1.4e-06], "total_magnetization_normalized_formula_units": [2.333333e-07], "total_magnetization_normalized_vol": [4.431485e-09], "uncorrected_energy_per_atom": [-29.65612], "volume": [315.9212], "equilibrium_reaction_energy_per_atom": [-0.1458093]}