{"includesElement": ["", "V", "Ru", "C"], "includesElement___series_id": [8, 1], "includesElement__abundance_crust": [120.0, 0.001, 200.0], "includesElement__atomic_number": [23, 44, 6], "includesElement__atomic_radius": [135.0, 130.0, 70.0], "includesElement__atomic_radius_rahm": [252.0, 237.0, 190.0], "includesElement__atomic_volume": [8.35, 8.3, 5.3], "includesElement__atomic_weight": [50.9415, 101.07, 12.011], "includesElement__covalent_radius_cordero": [153.0, 146.0, 73.0], "includesElement__covalent_radius_pyykko": [134.0, 125.0, 75.0], "includesElement__covalent_radius_pyykko_double": [112.0, 114.0, 67.0], "includesElement__covalent_radius_pyykko_triple": [106.0, 103.0, 60.0], "includesElement__density": [6.0, 12.1, 2.2], "includesElement__dipole_polarizability": [87.0, 72.0, 11.3], "includesElement__dipole_polarizability_unc": [10.0, 0.2], "includesElement__discovery_year": [1830, 1844], "includesElement__electron_affinity": [0.525, 1.05, 1.262119], "includesElement__electronegativity_allred-rochow": [0.0001837826, 0.000208, 0.0005777778], "includesElement__electronegativity_cottrell-sutton": [0.1569295, 0.1612452, 0.2081666], "includesElement__electronegativity_ghosh": [0.1273344, 0.1376494, 0.224776], "includesElement__electronegativity_gordy": [0.02462687, 0.026, 0.04333333], "includesElement__electronegativity_mulliken": [3.635594, 4.20525, 6.261208], "includesElement__electronegativity_nagle": [0.3859078, 0.4807499, 0.7073926], "includesElement__electronegativity_pauling": [1.63, 2.2, 2.55], "includesElement__electronegativity_sanderson": [0.4388898, 0.9579373, 0.427525], "includesElement__en_ghosh": [0.1273344, 0.1376494, 0.224776], "includesElement__en_pauling": [1.63, 2.2, 2.55], "includesElement__evaporation_heat": [460.0], "includesElement__fusion_heat": [17.5, 25.5], "includesElement__glawe_number": [54, 61, 87], "includesElement__group_id": [5, 8, 14], "includesElement__heat_of_formation": [515.5, 650.6, 716.87], "includesElement__is_radioactive": [false], "includesElement__lattice_constant": [3.02, 2.7, 3.57], "includesElement__mendeleev_number": [47, 60, 87], "includesElement__molar_heat_capacity": [24.89, 24.06, 8.517], "includesElement__period": [4, 5, 2], "includesElement__pettifor_number": [54, 63, 95], "includesElement__specific_heat_capacity": [0.489, 0.238, 0.709], "includesElement__vdw_radius": [207.0, 213.0, 170.0], "includesElement__vdw_radius_alvarez": [242.0, 246.0, 177.0], "includesElement__vdw_radius_mm3": [229.0, 234.0, 204.0], "includesElement__vdw_radius_uff": [314.4, 296.3, 385.1], "includesElement__abundance_sea": [0.0025, 7e-07, 28.0], "includesElement__atomic_weight_uncertainty": [0.0001, 0.02], "includesElement__c6_gb": [955.0, 809.0, 47.9], "includesElement__electronegativity_allen": [9.063, 9.1, 15.05], "includesElement__en_allen": [9.063, 9.1, 15.05], "includesElement__metallic_radius": [122.0, 125.0], "includesElement__metallic_radius_c12": [134.0, 86.0], "includesElement__thermal_conductivity": [30.7, 117.0, 1.59], "includesElement__vdw_radius_batsanov": [205.0, 170.0], "includesElement__c6": [832.0, 46.6], "includesElement__gas_basicity": [836.8, 751.4], "includesElement__proton_affinity": [859.4, 774.0], "includesElement__covalent_radius_bragg": [77.0], "includesElement__vdw_radius_dreiding": [389.83], "includesElement__vdw_radius_bondi": [170.0], "includesElement__vdw_radius_rt": [177.0], "formula": ["C1Ru3V1"], "spacegroup": ["221"], "thermalConductivity": [22.9169], "icsd": ["77394"], "band_gap": [0.0], "density": [9.476167], "density_atomic": [12.83275], "deprecated": [false], "efermi": [7.823562], "energy_above_hull": [0.3024946], "energy_per_atom": [-9.123774], "formation_energy_per_atom": [0.1033817], "homogeneous_poisson": [0.256], "is_gap_direct": [false], "is_magnetic": [true], "is_metal": [true], "is_stable": [false], "nelements": [3], "nsites": [5], "num_magnetic_sites": [1], "num_unique_magnetic_sites": [1], "theoretical": [false], "total_magnetization": [0.1434092], "total_magnetization_normalized_formula_units": [0.1434092], "total_magnetization_normalized_vol": [0.002235049], "uncorrected_energy_per_atom": [-9.123774], "universal_anisotropy": [0.272], "volume": [64.16377]}