{"includesElement": ["", "Cd", "S", "Ho"], "includesElement___series_id": [8, 1, 9], "includesElement__abundance_crust": [0.15, 350.0, 1.3], "includesElement__atomic_number": [48, 16, 67], "includesElement__atomic_radius": [155.0, 100.0, 175.0], "includesElement__atomic_radius_rahm": [238.0, 214.0, 273.0], "includesElement__atomic_volume": [13.1, 15.5, 18.7], "includesElement__atomic_weight": [112.414, 32.06, 164.9303], "includesElement__covalent_radius_cordero": [144.0, 105.0, 192.0], "includesElement__covalent_radius_pyykko": [136.0, 103.0, 166.0], "includesElement__covalent_radius_pyykko_double": [144.0, 94.0, 133.0], "includesElement__density": [8.69, 2.07, 8.8], "includesElement__dipole_polarizability": [46.0, 19.4, 156.0], "includesElement__dipole_polarizability_unc": [2.0, 0.1, 10.0], "includesElement__discovery_year": [1817, 1878], "includesElement__electronegativity_allred-rochow": [0.000235186, 0.0005137148, 0.0001034258], "includesElement__electronegativity_cottrell-sutton": [0.1788443, 0.2300274, 0.1310293], "includesElement__electronegativity_ghosh": [0.1504066, 0.23596, 0.207795], "includesElement__electronegativity_gordy": [0.03198529, 0.05291262, 0.01716867], "includesElement__electronegativity_mulliken": [4.496911, 6.218557, 3.01075], "includesElement__electronegativity_nagle": [0.6389612, 0.6762644, 0.4367902], "includesElement__electronegativity_pauling": [1.69, 2.58, 1.23], "includesElement__electronegativity_sanderson": [0.801562, 0.6397251, 0.5434919], "includesElement__en_ghosh": [0.1504066, 0.23596, 0.207795], "includesElement__en_pauling": [1.69, 2.58, 1.23], "includesElement__evaporation_heat": [59.1, 10.5, 301.0], "includesElement__fusion_heat": [6.11, 1.23], "includesElement__glawe_number": [75, 96, 23], "includesElement__group_id": [12, 16], "includesElement__heat_of_formation": [111.8, 277.17, 300.6], "includesElement__is_radioactive": [false], "includesElement__lattice_constant": [2.98, 10.47, 3.58], "includesElement__mendeleev_number": [78, 100, 33], "includesElement__molar_heat_capacity": [26.02, 22.7, 27.15], "includesElement__period": [5, 3, 6], "includesElement__pettifor_number": [75, 94, 24], "includesElement__specific_heat_capacity": [0.232, 0.708, 0.165], "includesElement__vdw_radius": [218.0, 180.0, 230.0], "includesElement__vdw_radius_alvarez": [249.0, 189.0, 281.0], "includesElement__vdw_radius_mm3": [250.0, 215.0, 267.0], "includesElement__vdw_radius_uff": [284.8, 403.5, 340.9], "includesElement__abundance_sea": [0.00011, 905.0, 2.2e-07], "includesElement__atomic_weight_uncertainty": [0.004, 2e-05], "includesElement__c6_gb": [405.0, 140.0, 2280.0], "includesElement__covalent_radius_bragg": [160.0, 102.0], "includesElement__electronegativity_allen": [8.995, 15.31], "includesElement__en_allen": [8.995, 15.31], "includesElement__metallic_radius": [138.0, 104.0], "includesElement__metallic_radius_c12": [151.0, 127.0], "includesElement__thermal_conductivity": [96.9, 0.27], "includesElement__vdw_radius_batsanov": [220.0, 180.0], "includesElement__covalent_radius_pyykko_triple": [95.0], "includesElement__electron_affinity": [2.077104], "includesElement__c6": [134.0], "includesElement__vdw_radius_dreiding": [403.0], "includesElement__gas_basicity": [640.2], "includesElement__proton_affinity": [664.3], "includesElement__vdw_radius_bondi": [180.0], "includesElement__vdw_radius_rt": [181.0], "includesElement__is_monoisotopic": [true], "formula": ["Cd2Ho4S8"], "spacegroup": ["227"], "thermalConductivity": [1.58386], "icsd": ["246501"], "band_gap": [1.1172], "density": [5.392705], "density_atomic": [25.09713], "deprecated": [false], "efermi": [1.79631], "energy_above_hull": [0.0], "energy_per_atom": [-5.759579], "formation_energy_per_atom": [-1.944035], "is_gap_direct": [true], "is_magnetic": [false], "is_metal": [false], "is_stable": [true], "nelements": [3], "nsites": [14], "num_magnetic_sites": [0], "num_unique_magnetic_sites": [0], "theoretical": [false], "total_magnetization": [0.0], "total_magnetization_normalized_formula_units": [0.0], "total_magnetization_normalized_vol": [0.0], "uncorrected_energy_per_atom": [-18.79237], "volume": [351.3599], "cbm": [2.8576], "equilibrium_reaction_energy_per_atom": [-0.00916163], "vbm": [1.7404]}