{"includesElement": ["", "Mg", "La", "Ru"], "includesElement___series_id": [4, 9, 8], "includesElement__abundance_crust": [23300.0, 39.0, 0.001], "includesElement__atomic_number": [12, 57, 44], "includesElement__atomic_radius": [150.0, 195.0, 130.0], "includesElement__atomic_radius_rahm": [240.0, 284.0, 237.0], "includesElement__atomic_volume": [14.0, 22.5, 8.3], "includesElement__atomic_weight": [24.305, 138.9055, 101.07], "includesElement__covalent_radius_cordero": [141.0, 207.0, 146.0], "includesElement__covalent_radius_pyykko": [139.0, 180.0, 125.0], "includesElement__covalent_radius_pyykko_double": [132.0, 139.0, 114.0], "includesElement__covalent_radius_pyykko_triple": [127.0, 139.0, 103.0], "includesElement__density": [1.74, 6.15, 12.1], "includesElement__dipole_polarizability": [71.2, 215.0, 72.0], "includesElement__dipole_polarizability_unc": [0.4, 20.0, 10.0], "includesElement__discovery_year": [1808, 1839, 1844], "includesElement__electronegativity_allred-rochow": [0.0001475079, 9.259259e-05, 0.000208], "includesElement__electronegativity_cottrell-sutton": [0.1431908, 0.1290994, 0.1612452], "includesElement__electronegativity_ghosh": [0.121644, 0.163142, 0.1376494], "includesElement__electronegativity_gordy": [0.0205036, 0.01666667, 0.026], "includesElement__electronegativity_mulliken": [3.823117, 3.02345, 4.20525], "includesElement__electronegativity_nagle": [0.3039835, 0.240747, 0.4807499], "includesElement__electronegativity_pauling": [1.31, 1.1, 2.2], "includesElement__electronegativity_sanderson": [0.1524211, 0.3946505, 0.9579373], "includesElement__en_ghosh": [0.121644, 0.163142, 0.1376494], "includesElement__en_pauling": [1.31, 1.1, 2.2], "includesElement__evaporation_heat": [131.8, 402.0], "includesElement__fusion_heat": [9.2, 8.5, 25.5], "includesElement__glawe_number": [73, 32, 61], "includesElement__group_id": [2, 3, 8], "includesElement__heat_of_formation": [147.1, 431.0, 650.6], "includesElement__is_radioactive": [false], "includesElement__lattice_constant": [3.21, 3.75, 2.7], "includesElement__mendeleev_number": [76, 13, 60], "includesElement__molar_heat_capacity": [24.869, 27.11, 24.06], "includesElement__period": [3, 6, 5], "includesElement__pettifor_number": [73, 33, 63], "includesElement__specific_heat_capacity": [1.023, 0.195, 0.238], "includesElement__vdw_radius": [173.0, 243.0, 213.0], "includesElement__vdw_radius_alvarez": [251.0, 298.0, 246.0], "includesElement__vdw_radius_mm3": [243.0, 278.0, 234.0], "includesElement__vdw_radius_uff": [302.1, 352.2, 296.3], "includesElement__abundance_sea": [1290.0, 3.4e-06, 7e-07], "includesElement__c6_gb": [629.0, 3730.0, 809.0], "includesElement__covalent_radius_bragg": [142.0], "includesElement__electronegativity_allen": [7.646, 9.1], "includesElement__en_allen": [7.646, 9.1], "includesElement__metallic_radius": [136.0, 169.0, 125.0], "includesElement__metallic_radius_c12": [160.0, 187.0, 134.0], "includesElement__thermal_conductivity": [156.0, 13.4, 117.0], "includesElement__vdw_radius_batsanov": [220.0, 250.0, 205.0], "includesElement__c6": [626.0], "includesElement__gas_basicity": [797.3, 991.9, 751.4], "includesElement__proton_affinity": [819.6, 1013.0, 774.0], "includesElement__vdw_radius_bondi": [173.0], "includesElement__electron_affinity": [0.47, 1.05], "includesElement__atomic_weight_uncertainty": [7e-05, 0.02], "formula": ["La16Mg4Ru4"], "spacegroup": ["216"], "thermalConductivity": [1.04296], "icsd": ["418013"], "band_gap": [0.0], "density": [6.158139], "density_atomic": [30.60508], "deprecated": [false], "efermi": [7.23876], "energy_above_hull": [0.0], "energy_per_atom": [-5.323406], "formation_energy_per_atom": [-0.2152556], "is_gap_direct": [false], "is_magnetic": [false], "is_metal": [true], "is_stable": [true], "nelements": [3], "nsites": [24], "num_magnetic_sites": [0], "num_unique_magnetic_sites": [0], "theoretical": [false], "total_magnetization": [7.11e-05], "total_magnetization_normalized_formula_units": [1.7775e-05], "total_magnetization_normalized_vol": [9.679766e-08], "uncorrected_energy_per_atom": [-25.00111], "volume": [734.5219], "equilibrium_reaction_energy_per_atom": [-0.02252401]}