{"includesElement": ["", "Na", "Ag"], "includesElement___series_id": [3, 8], "includesElement__abundance_crust": [23600.0, 0.075], "includesElement__atomic_number": [11, 47], "includesElement__atomic_radius": [180.0, 160.0], "includesElement__atomic_radius_rahm": [225.0], "includesElement__atomic_volume": [23.7, 10.3], "includesElement__atomic_weight": [22.98977, 107.8682], "includesElement__covalent_radius_cordero": [166.0, 145.0], "includesElement__covalent_radius_pyykko": [155.0, 128.0], "includesElement__covalent_radius_pyykko_double": [160.0, 139.0], "includesElement__density": [0.97, 10.5], "includesElement__dipole_polarizability": [162.7, 55.0], "includesElement__dipole_polarizability_unc": [0.5, 8.0], "includesElement__discovery_year": [1807], "includesElement__electron_affinity": [0.547926, 1.302], "includesElement__electronegativity_allred-rochow": [9.157128e-05, 0.0002258301], "includesElement__electronegativity_cottrell-sutton": [0.1191367, 0.1700184], "includesElement__electronegativity_ghosh": [0.093214, 0.1472165], "includesElement__electronegativity_gordy": [0.01419355, 0.02890625], "includesElement__electronegativity_mulliken": [2.843501, 4.439117], "includesElement__electronegativity_nagle": [0.1831769, 0.5848035], "includesElement__electronegativity_pauling": [0.93, 1.93], "includesElement__electronegativity_sanderson": [0.09459764, 0.9437955], "includesElement__en_ghosh": [0.093214, 0.1472165], "includesElement__en_pauling": [0.93, 1.93], "includesElement__evaporation_heat": [97.9, 254.1], "includesElement__fusion_heat": [2.64, 11.95], "includesElement__glawe_number": [11, 67], "includesElement__group_id": [1, 11], "includesElement__heat_of_formation": [107.5, 284.9], "includesElement__is_radioactive": [false], "includesElement__lattice_constant": [4.23, 4.09], "includesElement__mendeleev_number": [2, 72], "includesElement__molar_heat_capacity": [28.23, 25.35], "includesElement__period": [3, 5], "includesElement__pettifor_number": [11, 71], "includesElement__specific_heat_capacity": [1.228, 0.235], "includesElement__vdw_radius": [227.0, 211.0], "includesElement__vdw_radius_alvarez": [250.0, 253.0], "includesElement__vdw_radius_mm3": [270.0, 243.0], "includesElement__vdw_radius_uff": [298.3, 314.8], "includesElement__abundance_sea": [10800.0, 4e-05], "includesElement__atomic_weight_uncertainty": [2e-08, 0.0002], "includesElement__c6_gb": [1570.0, 341.0], "includesElement__covalent_radius_bragg": [177.0], "includesElement__electronegativity_allen": [5.14, 11.05], "includesElement__en_allen": [5.14, 11.05], "includesElement__metallic_radius": [157.0, 134.0], "includesElement__metallic_radius_c12": [190.0, 144.0], "includesElement__thermal_conductivity": [142.0, 429.0], "includesElement__vdw_radius_batsanov": [240.0, 210.0], "includesElement__c6": [1518.0], "includesElement__is_monoisotopic": [true], "includesElement__vdw_radius_bondi": [227.0], "includesElement__covalent_radius_pyykko_triple": [137.0], "formula": ["Ag4Na2"], "spacegroup": ["227"], "thermalConductivity": [0.642048], "icsd": ["58337"], "band_gap": [0.0], "density": [6.401417], "density_atomic": [20.642], "deprecated": [false], "efermi": [2.401284], "energy_above_hull": [0.0], "energy_per_atom": [-15.50389], "formation_energy_per_atom": [-0.07858258], "homogeneous_poisson": [0.309], "is_gap_direct": [false], "is_magnetic": [false], "is_metal": [true], "is_stable": [true], "nelements": [2], "nsites": [6], "num_magnetic_sites": [0], "num_unique_magnetic_sites": [0], "theoretical": [false], "total_magnetization": [0.0], "total_magnetization_normalized_formula_units": [0.0], "total_magnetization_normalized_vol": [0.0], "uncorrected_energy_per_atom": [-15.50389], "universal_anisotropy": [0.299], "volume": [123.852], "equilibrium_reaction_energy_per_atom": [-0.07858258]}