{"includesElement": ["", "Tl", "Cl", "Te"], "includesElement___series_id": [7, 6, 5], "includesElement__abundance_crust": [0.85, 145.0, 0.001], "includesElement__atomic_number": [81, 17, 52], "includesElement__atomic_radius": [190.0, 100.0, 140.0], "includesElement__atomic_radius_rahm": [242.0, 206.0], "includesElement__atomic_volume": [17.2, 18.7, 20.5], "includesElement__atomic_weight": [204.38, 35.45, 127.6], "includesElement__covalent_radius_cordero": [145.0, 102.0, 138.0], "includesElement__covalent_radius_pyykko": [144.0, 99.0, 136.0], "includesElement__covalent_radius_pyykko_double": [142.0, 95.0, 128.0], "includesElement__covalent_radius_pyykko_triple": [150.0, 93.0, 121.0], "includesElement__density": [11.8, 0.002898, 6.232], "includesElement__dipole_polarizability": [50.0, 14.6, 38.0], "includesElement__dipole_polarizability_unc": [2.0, 0.1, 4.0], "includesElement__discovery_year": [1861, 1774, 1782], "includesElement__electron_affinity": [0.377, 3.612725, 1.970876], "includesElement__electronegativity_allred-rochow": [0.0002411265, 0.0006223855, 0.0003757569], "includesElement__electronegativity_cottrell-sutton": [0.186339, 0.248226, 0.2260596], "includesElement__electronegativity_ghosh": [0.173447, 0.263803, 0.2056992], "includesElement__electronegativity_gordy": [0.03472222, 0.06161616, 0.05110294], "includesElement__electronegativity_mulliken": [3.242643, 8.290178, 5.490268], "includesElement__electronegativity_nagle": [0.3914868, 0.7826755, 0.5404919], "includesElement__electronegativity_pauling": [1.8, 3.16, 2.1], "includesElement__electronegativity_sanderson": [0.9245096, 0.8123773, 0.8622506], "includesElement__en_ghosh": [0.173447, 0.263803, 0.2056992], "includesElement__en_pauling": [1.8, 3.16, 2.1], "includesElement__evaporation_heat": [162.4, 20.41, 49.8], "includesElement__fusion_heat": [4.31, 6.41, 17.91], "includesElement__glawe_number": [81, 101, 94], "includesElement__group_id": [13, 17, 16], "includesElement__heat_of_formation": [182.2, 121.302, 196.6], "includesElement__is_radioactive": [false], "includesElement__lattice_constant": [3.46, 6.24, 4.45], "includesElement__mendeleev_number": [85, 107, 102], "includesElement__molar_heat_capacity": [26.32, 33.949, 25.73], "includesElement__period": [6, 3, 5], "includesElement__pettifor_number": [78, 99, 92], "includesElement__specific_heat_capacity": [0.129, 0.479, 0.202], "includesElement__vdw_radius": [196.0, 175.0, 206.0], "includesElement__vdw_radius_alvarez": [247.0, 182.0, 199.0], "includesElement__vdw_radius_mm3": [259.0, 207.0, 244.0], "includesElement__vdw_radius_uff": [434.7, 394.7, 447.0], "includesElement__abundance_sea": [1.9e-05, 19400.0], "includesElement__c6_gb": [509.0, 97.1, 471.0], "includesElement__covalent_radius_bragg": [190.0, 105.0, 133.0], "includesElement__metallic_radius": [144.0, 137.0], "includesElement__metallic_radius_c12": [160.0, 91.0], "includesElement__thermal_conductivity": [46.1, 0.009, 14.3], "includesElement__vdw_radius_batsanov": [220.0, 180.0, 210.0], "includesElement__vdw_radius_bondi": [196.0, 175.0, 206.0], "includesElement__electronegativity_allen": [16.97, 12.76], "includesElement__en_allen": [16.97, 12.76], "includesElement__c6": [94.6, 445.0], "includesElement__vdw_radius_dreiding": [395.03, 423.0], "includesElement__gas_basicity": [490.1], "includesElement__proton_affinity": [513.6], "includesElement__vdw_radius_rt": [176.0], "includesElement__atomic_weight_uncertainty": [0.03], "formula": ["Cl6Te1Tl2"], "spacegroup": ["225"], "thermalConductivity": [0.788915], "icsd": ["26705"], "band_gap": [2.5741], "density": [4.781527], "density_atomic": [28.90486], "deprecated": [false], "efermi": [1.283396], "energy_above_hull": [0.0], "energy_per_atom": [-3.331155], "formation_energy_per_atom": [-1.222547], "homogeneous_poisson": [0.288], "is_gap_direct": [false], "is_magnetic": [false], "is_metal": [false], "is_stable": [true], "nelements": [3], "nsites": [9], "num_magnetic_sites": [0], "num_unique_magnetic_sites": [0], "theoretical": [false], "total_magnetization": [0.0], "total_magnetization_normalized_formula_units": [0.0], "total_magnetization_normalized_vol": [0.0], "uncorrected_energy_per_atom": [-19.63617], "universal_anisotropy": [0.104], "volume": [260.1437], "cbm": [3.8065], "e_electronic": [3.935588], "e_ionic": [1.217039], "e_total": [5.152628], "equilibrium_reaction_energy_per_atom": [-0.02218797], "n": [1.983832], "vbm": [1.2324]}