{"includesElement": ["", "Ba", "Si"], "includesElement___series_id": [4, 5], "includesElement__abundance_crust": [425.0, 282000.0], "includesElement__atomic_number": [56, 14], "includesElement__atomic_radius": [215.0, 110.0], "includesElement__atomic_radius_rahm": [293.0, 232.0], "includesElement__atomic_volume": [39.0, 12.1], "includesElement__atomic_weight": [137.327, 28.085], "includesElement__covalent_radius_cordero": [215.0, 111.0], "includesElement__covalent_radius_pyykko": [196.0, 116.0], "includesElement__covalent_radius_pyykko_double": [161.0, 107.0], "includesElement__covalent_radius_pyykko_triple": [149.0, 102.0], "includesElement__density": [3.62, 2.3296], "includesElement__dipole_polarizability": [272.0, 37.3], "includesElement__dipole_polarizability_unc": [10.0, 0.7], "includesElement__discovery_year": [1808, 1824], "includesElement__electron_affinity": [0.14462, 1.389521], "includesElement__electronegativity_allred-rochow": [7.418784e-05, 0.0003084126], "includesElement__electronegativity_cottrell-sutton": [0.1205853, 0.1891451], "includesElement__electronegativity_ghosh": [0.1586786, 0.178503], "includesElement__electronegativity_gordy": [0.01454082, 0.03577586], "includesElement__electronegativity_mulliken": [2.678142, 4.770602], "includesElement__electronegativity_nagle": [0.1944556, 0.4750986], "includesElement__electronegativity_pauling": [0.89, 1.9], "includesElement__electronegativity_sanderson": [0.3032951, 0.3468158], "includesElement__en_ghosh": [0.1586786, 0.178503], "includesElement__en_pauling": [0.89, 1.9], "includesElement__evaporation_heat": [142.0, 383.0], "includesElement__fusion_heat": [7.66, 50.6], "includesElement__glawe_number": [14, 85], "includesElement__group_id": [2, 14], "includesElement__heat_of_formation": [179.1, 450.0], "includesElement__is_radioactive": [false], "includesElement__lattice_constant": [5.02, 5.43], "includesElement__mendeleev_number": [9, 88], "includesElement__molar_heat_capacity": [28.07, 19.99], "includesElement__period": [6, 3], "includesElement__pettifor_number": [14, 85], "includesElement__specific_heat_capacity": [0.204, 0.712], "includesElement__vdw_radius": [268.0, 210.0], "includesElement__vdw_radius_alvarez": [303.0, 219.0], "includesElement__vdw_radius_mm3": [307.0, 229.0], "includesElement__vdw_radius_uff": [370.3, 429.5], "includesElement__abundance_sea": [0.013, 2.2], "includesElement__atomic_weight_uncertainty": [0.007], "includesElement__c6_gb": [5540.0, 308.0], "includesElement__covalent_radius_bragg": [210.0, 117.0], "includesElement__electronegativity_allen": [5.211, 11.33], "includesElement__en_allen": [5.211, 11.33], "includesElement__metallic_radius": [198.0, 117.0], "includesElement__metallic_radius_c12": [222.0, 138.0], "includesElement__vdw_radius_batsanov": [270.0, 210.0], "includesElement__vdw_radius_truhlar": [268.0], "includesElement__thermal_conductivity": [149.0], "includesElement__c6": [305.0], "includesElement__vdw_radius_dreiding": [427.0], "includesElement__gas_basicity": [814.1], "includesElement__proton_affinity": [837.0], "includesElement__vdw_radius_bondi": [210.0], "formula": ["Ba8Si46"], "spacegroup": ["223"], "thermalConductivity": [0.681803], "icsd": ["153685"], "band_gap": [0.0], "density": [3.5246], "density_atomic": [20.85659], "deprecated": [false], "efermi": [6.745105], "energy_above_hull": [0.08625269], "energy_per_atom": [-4.958671], "formation_energy_per_atom": [-0.05281098], "is_gap_direct": [false], "is_magnetic": [false], "is_metal": [true], "is_stable": [false], "nelements": [2], "nsites": [54], "num_magnetic_sites": [0], "num_unique_magnetic_sites": [0], "theoretical": [false], "total_magnetization": [1.71e-05], "total_magnetization_normalized_formula_units": [8.55e-06], "total_magnetization_normalized_vol": [1.518305e-08], "uncorrected_energy_per_atom": [-5.019152], "volume": [1126.256]}