{"includesElement": ["", "Ca", "Se"], "includesElement___series_id": [4, 1], "includesElement__abundance_crust": [41500.0, 0.05], "includesElement__atomic_number": [20, 34], "includesElement__atomic_radius": [180.0, 115.0], "includesElement__atomic_radius_rahm": [270.0, 224.0], "includesElement__atomic_volume": [29.9, 16.5], "includesElement__atomic_weight": [40.078, 78.971], "includesElement__covalent_radius_cordero": [176.0, 120.0], "includesElement__covalent_radius_pyykko": [171.0, 116.0], "includesElement__covalent_radius_pyykko_double": [147.0, 107.0], "includesElement__covalent_radius_pyykko_triple": [133.0, 107.0], "includesElement__density": [1.54, 4.809], "includesElement__dipole_polarizability": [160.8, 28.9], "includesElement__dipole_polarizability_unc": [4.0, 1.0], "includesElement__discovery_year": [1808, 1818], "includesElement__electron_affinity": [0.02455, 2.02067], "includesElement__electronegativity_allred-rochow": [9.746589e-05, 0.0005164982], "includesElement__electronegativity_cottrell-sutton": [0.1290994, 0.2447729], "includesElement__electronegativity_ghosh": [0.1154119, 0.2240328], "includesElement__electronegativity_gordy": [0.01666667, 0.05991379], "includesElement__electronegativity_mulliken": [3.068853, 5.886531], "includesElement__electronegativity_nagle": [0.2316939, 0.592131], "includesElement__electronegativity_pauling": [1.0, 2.55], "includesElement__electronegativity_sanderson": [0.1901577, 0.9659121], "includesElement__en_ghosh": [0.1154119, 0.2240328], "includesElement__en_pauling": [1.0, 2.55], "includesElement__evaporation_heat": [153.6, 59.7], "includesElement__fusion_heat": [9.2, 5.23], "includesElement__glawe_number": [16, 95], "includesElement__group_id": [2, 16], "includesElement__heat_of_formation": [177.8, 227.2], "includesElement__is_radioactive": [false], "includesElement__lattice_constant": [5.58, 4.36], "includesElement__mendeleev_number": [7, 101], "includesElement__molar_heat_capacity": [25.929, 25.363], "includesElement__period": [4], "includesElement__pettifor_number": [16, 93], "includesElement__specific_heat_capacity": [0.647, 0.321], "includesElement__vdw_radius": [231.0, 190.0], "includesElement__vdw_radius_alvarez": [262.0, 182.0], "includesElement__vdw_radius_mm3": [281.0, 229.0], "includesElement__vdw_radius_uff": [339.9, 420.5], "includesElement__abundance_sea": [412.0, 0.0002], "includesElement__atomic_weight_uncertainty": [0.004, 0.008], "includesElement__c6_gb": [2230.0, 233.0], "includesElement__covalent_radius_bragg": [170.0, 117.0], "includesElement__electronegativity_allen": [6.113, 14.34], "includesElement__en_allen": [6.113, 14.34], "includesElement__metallic_radius": [174.0, 117.0], "includesElement__metallic_radius_c12": [197.0, 140.0], "includesElement__vdw_radius_batsanov": [240.0, 190.0], "includesElement__c6": [2163.0, 210.0], "includesElement__vdw_radius_truhlar": [231.0], "includesElement__thermal_conductivity": [0.52], "includesElement__vdw_radius_dreiding": [403.0], "includesElement__vdw_radius_bondi": [190.0], "formula": ["Ca1Se1"], "spacegroup": ["216"], "thermalConductivity": [1.16375], "icsd": ["167834"], "band_gap": [3.1661], "density": [2.750191], "density_atomic": [35.937], "deprecated": [false], "efermi": [-0.2729112], "energy_above_hull": [0.2580261], "energy_per_atom": [-12.73286], "formation_energy_per_atom": [-2.057932], "homogeneous_poisson": [0.413], "is_gap_direct": [false], "is_magnetic": [false], "is_metal": [false], "is_stable": [false], "nelements": [2], "nsites": [2], "num_magnetic_sites": [0], "num_unique_magnetic_sites": [0], "theoretical": [true], "total_magnetization": [0.0002196], "total_magnetization_normalized_formula_units": [0.0002196], "total_magnetization_normalized_vol": [3.055347e-06], "uncorrected_energy_per_atom": [-4.515047], "universal_anisotropy": [2.569], "volume": [71.874], "cbm": [2.8027], "e_electronic": [3.870529], "e_ionic": [2.557375], "e_total": [6.427903], "n": [1.967366], "vbm": [-0.3634], "e_ij_max": [0.3141]}