{"includesElement": ["", "Ni", "S", "Co"], "includesElement___series_id": [8, 1], "includesElement__abundance_crust": [84.0, 350.0, 25.0], "includesElement__atomic_number": [28, 16, 27], "includesElement__atomic_radius": [135.0, 100.0], "includesElement__atomic_radius_rahm": [229.0, 214.0, 233.0], "includesElement__atomic_volume": [6.6, 15.5, 6.7], "includesElement__atomic_weight": [58.6934, 32.06, 58.93319], "includesElement__covalent_radius_cordero": [124.0, 105.0, 138.0], "includesElement__covalent_radius_pyykko": [110.0, 103.0, 111.0], "includesElement__covalent_radius_pyykko_double": [101.0, 94.0, 103.0], "includesElement__covalent_radius_pyykko_triple": [101.0, 95.0, 96.0], "includesElement__density": [8.9, 2.07, 8.86], "includesElement__dipole_polarizability": [49.0, 19.4, 55.0], "includesElement__dipole_polarizability_unc": [3.0, 0.1, 4.0], "includesElement__discovery_year": [1751, 1739], "includesElement__electron_affinity": [1.156, 2.077104, 0.6622565], "includesElement__electronegativity_allred-rochow": [0.0003347107, 0.0005137148, 0.0003165327], "includesElement__electronegativity_cottrell-sutton": [0.1918806, 0.2300274, 0.1874437], "includesElement__electronegativity_ghosh": [0.1472068, 0.23596, 0.1432363], "includesElement__electronegativity_gordy": [0.03681818, 0.05291262, 0.03513514], "includesElement__electronegativity_mulliken": [4.397939, 6.218557, 4.271633], "includesElement__electronegativity_nagle": [0.588755, 0.6762644, 0.5469655], "includesElement__electronegativity_pauling": [1.91, 2.58, 1.88], "includesElement__electronegativity_sanderson": [0.937704, 0.6397251, 0.8832424], "includesElement__en_ghosh": [0.1472068, 0.23596, 0.1432363], "includesElement__en_pauling": [1.91, 2.58, 1.88], "includesElement__evaporation_heat": [378.6, 10.5, 389.1], "includesElement__fusion_heat": [17.61, 1.23, 15.48], "includesElement__glawe_number": [69, 96, 70], "includesElement__group_id": [10, 16, 9], "includesElement__heat_of_formation": [430.1, 277.17, 426.7], "includesElement__is_radioactive": [false], "includesElement__lattice_constant": [3.52, 10.47, 2.51], "includesElement__mendeleev_number": [67, 100, 63], "includesElement__molar_heat_capacity": [26.07, 22.7, 24.81], "includesElement__period": [4, 3], "includesElement__pettifor_number": [67, 94, 64], "includesElement__specific_heat_capacity": [0.444, 0.708, 0.421], "includesElement__vdw_radius": [197.0, 180.0, 200.0], "includesElement__vdw_radius_alvarez": [240.0, 189.0], "includesElement__vdw_radius_mm3": [222.0, 215.0, 223.0], "includesElement__vdw_radius_uff": [283.4, 403.5, 287.2], "includesElement__abundance_sea": [0.00056, 905.0, 2e-05], "includesElement__atomic_weight_uncertainty": [0.0004, 4e-06], "includesElement__c6_gb": [393.0, 140.0, 461.0], "includesElement__covalent_radius_bragg": [135.0, 102.0, 137.0], "includesElement__electronegativity_allen": [11.13, 15.31, 10.86], "includesElement__en_allen": [11.13, 15.31, 10.86], "includesElement__metallic_radius": [115.0, 104.0, 116.0], "includesElement__metallic_radius_c12": [124.0, 127.0, 125.0], "includesElement__thermal_conductivity": [90.9, 0.27, 100.0], "includesElement__vdw_radius_batsanov": [200.0, 180.0], "includesElement__c6": [373.0, 134.0, 408.0], "includesElement__gas_basicity": [714.1, 640.2, 719.8], "includesElement__proton_affinity": [737.0, 664.3, 742.7], "includesElement__vdw_radius_dreiding": [403.0], "includesElement__vdw_radius_bondi": [180.0], "includesElement__vdw_radius_rt": [181.0], "includesElement__is_monoisotopic": [true], "formula": ["Co2Ni4S8"], "spacegroup": ["227"], "thermalConductivity": [0.912407], "icsd": ["624469"], "band_gap": [0.0], "density": [4.891649], "density_atomic": [14.77057], "deprecated": [false], "efermi": [6.588268], "energy_above_hull": [0.05040981], "energy_per_atom": [-5.695092], "formation_energy_per_atom": [-0.6597879], "is_gap_direct": [false], "is_magnetic": [false], "is_metal": [true], "is_stable": [false], "nelements": [3], "nsites": [14], "num_magnetic_sites": [0], "num_unique_magnetic_sites": [0], "theoretical": [false], "total_magnetization": [0.0005111], "total_magnetization_normalized_formula_units": [0.00025555], "total_magnetization_normalized_vol": [2.471614e-06], "uncorrected_energy_per_atom": [-5.407663], "volume": [206.7879]}