{"includesElement": ["", "Mg", "Al", "Ti"], "includesElement___series_id": [4, 7, 8], "includesElement__abundance_crust": [23300.0, 82300.0, 5650.0], "includesElement__atomic_number": [12, 13, 22], "includesElement__atomic_radius": [150.0, 125.0, 140.0], "includesElement__atomic_radius_rahm": [240.0, 239.0, 257.0], "includesElement__atomic_volume": [14.0, 10.0, 10.6], "includesElement__atomic_weight": [24.305, 26.98154, 47.867], "includesElement__covalent_radius_cordero": [141.0, 121.0, 160.0], "includesElement__covalent_radius_pyykko": [139.0, 126.0, 136.0], "includesElement__covalent_radius_pyykko_double": [132.0, 113.0, 117.0], "includesElement__covalent_radius_pyykko_triple": [127.0, 111.0, 108.0], "includesElement__density": [1.74, 2.7, 4.506], "includesElement__dipole_polarizability": [71.2, 57.8, 100.0], "includesElement__dipole_polarizability_unc": [0.4, 1.0, 10.0], "includesElement__discovery_year": [1808, 1825, 1791], "includesElement__electronegativity_allred-rochow": [0.0001475079, 0.0002204586, 0.0001703071], "includesElement__electronegativity_cottrell-sutton": [0.1431908, 0.1666667, 0.1521899], "includesElement__electronegativity_ghosh": [0.121644, 0.150078, 0.1233637], "includesElement__electronegativity_gordy": [0.0205036, 0.02777778, 0.02316176], "includesElement__electronegativity_mulliken": [3.823117, 3.209299, 3.45356], "includesElement__electronegativity_nagle": [0.3039835, 0.3730192, 0.3419952], "includesElement__electronegativity_pauling": [1.31, 1.61, 1.54], "includesElement__electronegativity_sanderson": [0.1524211, 0.2360927, 0.4055462], "includesElement__en_ghosh": [0.121644, 0.150078, 0.1233637], "includesElement__en_pauling": [1.31, 1.61, 1.54], "includesElement__evaporation_heat": [131.8, 284.1, 422.6], "includesElement__fusion_heat": [9.2, 10.75, 18.8], "includesElement__glawe_number": [73, 78, 51], "includesElement__group_id": [2, 13, 4], "includesElement__heat_of_formation": [147.1, 330.9, 473.0], "includesElement__is_radioactive": [false], "includesElement__lattice_constant": [3.21, 4.05, 2.95], "includesElement__mendeleev_number": [76, 82, 43], "includesElement__molar_heat_capacity": [24.869, 24.2, 25.06], "includesElement__period": [3, 4], "includesElement__pettifor_number": [73, 80, 51], "includesElement__specific_heat_capacity": [1.023, 0.897, 0.523], "includesElement__vdw_radius": [173.0, 184.0, 211.0], "includesElement__vdw_radius_alvarez": [251.0, 225.0, 246.0], "includesElement__vdw_radius_mm3": [243.0, 236.0, 239.0], "includesElement__vdw_radius_uff": [302.1, 449.9, 317.5], "includesElement__abundance_sea": [1290.0, 0.002, 0.001], "includesElement__c6_gb": [629.0, 520.0, 1200.0], "includesElement__covalent_radius_bragg": [142.0, 135.0, 140.0], "includesElement__electronegativity_allen": [7.646, 9.539, 8.17], "includesElement__en_allen": [7.646, 9.539, 8.17], "includesElement__metallic_radius": [136.0, 125.0, 132.0], "includesElement__metallic_radius_c12": [160.0, 143.0, 147.0], "includesElement__thermal_conductivity": [156.0, 237.0, 21.9], "includesElement__vdw_radius_batsanov": [220.0, 210.0, 215.0], "includesElement__c6": [626.0, 528.0, 1044.0], "includesElement__gas_basicity": [797.3, 853.7], "includesElement__proton_affinity": [819.6, 876.0], "includesElement__vdw_radius_bondi": [173.0], "includesElement__electron_affinity": [0.43283, 0.079], "includesElement__atomic_weight_uncertainty": [7e-07, 0.001], "includesElement__is_monoisotopic": [true], "includesElement__vdw_radius_dreiding": [439.0], "includesElement__vdw_radius_truhlar": [184.0], "formula": ["Al36Mg6Ti4"], "spacegroup": ["227"], "thermalConductivity": [1.96025], "icsd": ["107850"], "band_gap": [0.0], "density": [2.768137], "density_atomic": [17.06561], "deprecated": [false], "efermi": [6.88248], "energy_above_hull": [0.0], "energy_per_atom": [-3.987206], "formation_energy_per_atom": [-0.1566513], "homogeneous_poisson": [0.235], "is_gap_direct": [false], "is_magnetic": [false], "is_metal": [true], "is_stable": [true], "nelements": [3], "nsites": [46], "num_magnetic_sites": [0], "num_unique_magnetic_sites": [0], "theoretical": [false], "total_magnetization": [2.5e-06], "total_magnetization_normalized_formula_units": [1.25e-06], "total_magnetization_normalized_vol": [3.184641e-09], "uncorrected_energy_per_atom": [-7.107948], "universal_anisotropy": [0.134], "volume": [785.0179], "equilibrium_reaction_energy_per_atom": [-0.01346638]}