{"includesElement": ["", "Rh", "Pa"], "includesElement___series_id": [8, 10], "includesElement__abundance_crust": [0.001, 1.4e-06], "includesElement__atomic_number": [45, 91], "includesElement__atomic_radius": [135.0, 180.0], "includesElement__atomic_radius_rahm": [233.0, 285.0], "includesElement__atomic_volume": [8.3, 15.0], "includesElement__atomic_weight": [102.9055, 231.0359], "includesElement__covalent_radius_cordero": [142.0, 200.0], "includesElement__covalent_radius_pyykko": [125.0, 169.0], "includesElement__covalent_radius_pyykko_double": [110.0, 138.0], "includesElement__covalent_radius_pyykko_triple": [106.0, 129.0], "includesElement__density": [12.4, 15.4], "includesElement__dipole_polarizability": [66.0, 154.0], "includesElement__dipole_polarizability_unc": [10.0, 20.0], "includesElement__discovery_year": [1803, 1917], "includesElement__electron_affinity": [1.137], "includesElement__electronegativity_allred-rochow": [0.0002176, 0.0001050383], "includesElement__electronegativity_cottrell-sutton": [0.1649242, 0.1332347], "includesElement__electronegativity_ghosh": [0.1408379, 0.12149], "includesElement__electronegativity_gordy": [0.0272, 0.01775148], "includesElement__electronegativity_mulliken": [4.29795, 2.945], "includesElement__electronegativity_nagle": [0.5147142, 0.3190189], "includesElement__electronegativity_pauling": [2.28, 1.5], "includesElement__electronegativity_sanderson": [0.9761915, 0.6230657], "includesElement__en_ghosh": [0.1408379, 0.12149], "includesElement__en_pauling": [2.28, 1.5], "includesElement__evaporation_heat": [494.0, 481.2], "includesElement__fusion_heat": [21.8, 16.7], "includesElement__glawe_number": [63, 35], "includesElement__group_id": [9], "includesElement__heat_of_formation": [556.0, 563.0], "includesElement__is_radioactive": [false, true], "includesElement__lattice_constant": [3.8, 3.92], "includesElement__mendeleev_number": [64, 18], "includesElement__molar_heat_capacity": [24.98], "includesElement__period": [5, 7], "includesElement__pettifor_number": [66, 46], "includesElement__specific_heat_capacity": [0.243], "includesElement__vdw_radius": [210.0, 243.0], "includesElement__vdw_radius_alvarez": [244.0, 288.0], "includesElement__vdw_radius_mm3": [234.0, 264.0], "includesElement__vdw_radius_uff": [292.9, 342.4], "includesElement__atomic_weight_uncertainty": [2e-05], "includesElement__c6_gb": [708.0], "includesElement__electronegativity_allen": [9.259], "includesElement__en_allen": [9.259], "includesElement__metallic_radius": [125.0], "includesElement__metallic_radius_c12": [134.0], "includesElement__thermal_conductivity": [150.0], "includesElement__vdw_radius_batsanov": [200.0], "includesElement__is_monoisotopic": [true], "includesElement__gas_basicity": [745.4], "includesElement__proton_affinity": [768.0], "includesElement__abundance_sea": [5e-11], "formula": ["Pa1Rh3"], "spacegroup": ["221"], "thermalConductivity": [8.26408], "icsd": ["105586"], "band_gap": [0.0], "density": [13.68657], "density_atomic": [16.37152], "deprecated": [false], "efermi": [9.228064], "energy_above_hull": [0.0], "energy_per_atom": [-38.25457], "formation_energy_per_atom": [-0.938393], "homogeneous_poisson": [0.31], "is_gap_direct": [false], "is_magnetic": [false], "is_metal": [true], "is_stable": [true], "nelements": [2], "nsites": [4], "num_magnetic_sites": [0], "num_unique_magnetic_sites": [0], "theoretical": [false], "total_magnetization": [0.0041535], "total_magnetization_normalized_formula_units": [0.0041535], "total_magnetization_normalized_vol": [6.34257e-05], "uncorrected_energy_per_atom": [-38.25457], "universal_anisotropy": [0.024], "volume": [65.48607], "equilibrium_reaction_energy_per_atom": [-0.938393]}