{"includesElement": ["", "N", "Th", "Te"], "includesElement___series_id": [1, 10, 5], "includesElement__abundance_crust": [19.0, 9.6, 0.001], "includesElement__atomic_number": [7, 90, 52], "includesElement__atomic_radius": [65.0, 180.0, 140.0], "includesElement__atomic_radius_rahm": [179.0, 288.0, 242.0], "includesElement__atomic_volume": [17.3, 19.8, 20.5], "includesElement__atomic_weight": [14.007, 232.0377, 127.6], "includesElement__covalent_radius_cordero": [71.0, 206.0, 138.0], "includesElement__covalent_radius_pyykko": [71.0, 175.0, 136.0], "includesElement__covalent_radius_pyykko_double": [60.0, 143.0, 128.0], "includesElement__covalent_radius_pyykko_triple": [54.0, 136.0, 121.0], "includesElement__density": [0.001145, 11.7, 6.232], "includesElement__dipole_polarizability": [7.4, 217.0, 38.0], "includesElement__dipole_polarizability_unc": [0.2, 54.0, 4.0], "includesElement__discovery_year": [1772, 1828, 1782], "includesElement__electron_affinity": [-1.4, 1.970876], "includesElement__electronegativity_allred-rochow": [0.000773656, 0.0001028571, 0.0003757569], "includesElement__electronegativity_cottrell-sutton": [0.2343706, 0.1341641, 0.2260596], "includesElement__electronegativity_ghosh": [0.26493, 0.10277, 0.2056992], "includesElement__electronegativity_gordy": [0.05492958, 0.018, 0.05110294], "includesElement__electronegativity_mulliken": [6.567065, 3.15335, 5.490268], "includesElement__electronegativity_nagle": [0.8774979, 0.2641598, 0.5404919], "includesElement__electronegativity_pauling": [3.04, 1.3, 2.1], "includesElement__electronegativity_sanderson": [0.577482, 0.5557019, 0.8622506], "includesElement__en_ghosh": [0.26493, 0.10277, 0.2056992], "includesElement__en_pauling": [3.04, 1.3, 2.1], "includesElement__glawe_number": [88, 34, 94], "includesElement__group_id": [15, 16], "includesElement__heat_of_formation": [472.44, 602.0, 196.6], "includesElement__is_radioactive": [false, true], "includesElement__lattice_constant": [4.039, 5.08, 4.45], "includesElement__mendeleev_number": [93, 16, 102], "includesElement__molar_heat_capacity": [29.124, 27.32, 25.73], "includesElement__period": [2, 7, 5], "includesElement__pettifor_number": [100, 47, 92], "includesElement__specific_heat_capacity": [1.04, 0.118, 0.202], "includesElement__vdw_radius": [155.0, 245.0, 206.0], "includesElement__vdw_radius_alvarez": [166.0, 293.0, 199.0], "includesElement__vdw_radius_mm3": [193.0, 274.0, 244.0], "includesElement__vdw_radius_uff": [366.0, 339.6, 447.0], "includesElement__abundance_sea": [0.5, 1e-06], "includesElement__c6_gb": [25.7, 471.0], "includesElement__covalent_radius_bragg": [65.0, 133.0], "includesElement__electronegativity_allen": [18.13, 12.76], "includesElement__en_allen": [18.13, 12.76], "includesElement__metallic_radius_c12": [53.0, 160.0], "includesElement__thermal_conductivity": [0.026, 14.3], "includesElement__vdw_radius_batsanov": [160.0, 240.0, 210.0], "includesElement__c6": [24.2, 445.0], "includesElement__vdw_radius_dreiding": [366.21, 423.0], "includesElement__gas_basicity": [318.7], "includesElement__proton_affinity": [342.2], "includesElement__vdw_radius_bondi": [155.0, 206.0], "includesElement__vdw_radius_rt": [164.0], "includesElement__evaporation_heat": [513.7, 49.8], "includesElement__fusion_heat": [16.11, 17.91], "includesElement__atomic_weight_uncertainty": [0.0004, 0.03], "includesElement__metallic_radius": [137.0], "formula": ["N2Te1Th2"], "spacegroup": ["139"], "thermalConductivity": [6.19272], "icsd": ["16063"], "band_gap": [1.6183], "density": [9.265667], "density_atomic": [22.21143], "deprecated": [false], "efermi": [6.329193], "energy_above_hull": [0.0], "energy_per_atom": [-40.23301], "formation_energy_per_atom": [-2.107964], "homogeneous_poisson": [0.291], "is_gap_direct": [true], "is_magnetic": [false], "is_metal": [false], "is_stable": [true], "nelements": [3], "nsites": [5], "num_magnetic_sites": [0], "num_unique_magnetic_sites": [0], "theoretical": [false], "total_magnetization": [0.0], "total_magnetization_normalized_formula_units": [0.0], "total_magnetization_normalized_vol": [0.0], "uncorrected_energy_per_atom": [-40.23301], "universal_anisotropy": [2.794], "volume": [111.0572], "cbm": [7.824], "equilibrium_reaction_energy_per_atom": [-0.3792399], "vbm": [6.2057]}