{"includesElement": ["", "S", "Os"], "includesElement___series_id": [1, 8], "includesElement__abundance_crust": [350.0, 0.0015], "includesElement__atomic_number": [16, 76], "includesElement__atomic_radius": [100.0, 130.0], "includesElement__atomic_radius_rahm": [214.0, 244.0], "includesElement__atomic_volume": [15.5, 8.43], "includesElement__atomic_weight": [32.06, 190.23], "includesElement__covalent_radius_cordero": [105.0, 144.0], "includesElement__covalent_radius_pyykko": [103.0, 129.0], "includesElement__covalent_radius_pyykko_double": [94.0, 116.0], "includesElement__covalent_radius_pyykko_triple": [95.0, 109.0], "includesElement__density": [2.07, 22.5872], "includesElement__dipole_polarizability": [19.4, 57.0], "includesElement__dipole_polarizability_unc": [0.1, 3.0], "includesElement__electron_affinity": [2.077104, 1.1], "includesElement__electronegativity_allred-rochow": [0.0005137148, 0.000225347], "includesElement__electronegativity_cottrell-sutton": [0.2300274, 0.1704986], "includesElement__electronegativity_ghosh": [0.23596, 0.2479845], "includesElement__electronegativity_gordy": [0.05291262, 0.02906977], "includesElement__electronegativity_mulliken": [6.218557, 4.769115], "includesElement__electronegativity_nagle": [0.6762644, 0.5196828], "includesElement__electronegativity_pauling": [2.58, 2.2], "includesElement__electronegativity_sanderson": [0.6397251, 1.239276], "includesElement__en_ghosh": [0.23596, 0.2479845], "includesElement__en_pauling": [2.58, 2.2], "includesElement__evaporation_heat": [10.5, 738.0], "includesElement__fusion_heat": [1.23, 31.7], "includesElement__glawe_number": [96, 60], "includesElement__group_id": [16, 8], "includesElement__heat_of_formation": [277.17, 787.0], "includesElement__is_radioactive": [false], "includesElement__lattice_constant": [10.47, 2.74], "includesElement__mendeleev_number": [100, 61], "includesElement__molar_heat_capacity": [22.7, 24.7], "includesElement__period": [3, 6], "includesElement__pettifor_number": [94, 62], "includesElement__specific_heat_capacity": [0.708, 0.13], "includesElement__vdw_radius": [180.0, 216.0], "includesElement__vdw_radius_alvarez": [189.0, 248.0], "includesElement__vdw_radius_mm3": [215.0, 235.0], "includesElement__vdw_radius_uff": [403.5, 312.0], "includesElement__abundance_sea": [905.0], "includesElement__c6_gb": [140.0, 584.0], "includesElement__covalent_radius_bragg": [102.0], "includesElement__electronegativity_allen": [15.31, 9.78], "includesElement__en_allen": [15.31, 9.78], "includesElement__metallic_radius": [104.0, 126.0], "includesElement__metallic_radius_c12": [127.0, 135.0], "includesElement__thermal_conductivity": [0.27], "includesElement__vdw_radius_batsanov": [180.0, 200.0], "includesElement__c6": [134.0], "includesElement__vdw_radius_dreiding": [403.0], "includesElement__gas_basicity": [640.2], "includesElement__proton_affinity": [664.3], "includesElement__vdw_radius_bondi": [180.0], "includesElement__vdw_radius_rt": [181.0], "includesElement__discovery_year": [1804], "includesElement__atomic_weight_uncertainty": [0.03], "formula": ["Os4S8"], "spacegroup": ["205"], "thermalConductivity": [8.91592], "icsd": ["24187"], "band_gap": [0.0], "density": [9.416622], "density_atomic": [14.95139], "deprecated": [false], "efermi": [7.702952], "energy_above_hull": [0.0], "energy_per_atom": [-23.50186], "formation_energy_per_atom": [-0.4834472], "homogeneous_poisson": [0.211], "is_gap_direct": [false], "is_magnetic": [false], "is_metal": [true], "is_stable": [true], "nelements": [2], "nsites": [12], "num_magnetic_sites": [0], "num_unique_magnetic_sites": [0], "theoretical": [false], "total_magnetization": [0.0], "total_magnetization_normalized_formula_units": [0.0], "total_magnetization_normalized_vol": [0.0], "uncorrected_energy_per_atom": [-23.50186], "universal_anisotropy": [0.382], "volume": [179.4167], "equilibrium_reaction_energy_per_atom": [-0.4834472]}