{"includesElement": ["", "Be", "Pd"], "includesElement___series_id": [4, 8], "includesElement__abundance_crust": [2.8, 0.015], "includesElement__atomic_number": [4, 46], "includesElement__atomic_radius": [105.0, 140.0], "includesElement__atomic_radius_rahm": [219.0, 215.0], "includesElement__atomic_volume": [5.0, 8.9], "includesElement__atomic_weight": [9.012183, 106.42], "includesElement__covalent_radius_cordero": [96.0, 139.0], "includesElement__covalent_radius_pyykko": [102.0, 120.0], "includesElement__covalent_radius_pyykko_double": [90.0, 117.0], "includesElement__covalent_radius_pyykko_triple": [85.0, 112.0], "includesElement__density": [1.85, 12.0], "includesElement__dipole_polarizability": [37.74, 26.14], "includesElement__dipole_polarizability_unc": [0.03, 0.1], "includesElement__discovery_year": [1798, 1803], "includesElement__electron_affinity": [-2.4, 0.562], "includesElement__electronegativity_allred-rochow": [0.0001874279, 0.0004756944], "includesElement__electronegativity_cottrell-sutton": [0.1382666, 0.2389212], "includesElement__electronegativity_ghosh": [0.144986, 0.1440276], "includesElement__electronegativity_gordy": [0.01911765, 0.05708333], "includesElement__electronegativity_mulliken": [3.461349, 4.44943], "includesElement__electronegativity_nagle": [0.3756148, 0.7259357], "includesElement__electronegativity_pauling": [1.57, 2.2], "includesElement__electronegativity_sanderson": [0.1268473, 1.124263], "includesElement__en_ghosh": [0.144986, 0.1440276], "includesElement__en_pauling": [1.57, 2.2], "includesElement__evaporation_heat": [309.0, 372.4], "includesElement__fusion_heat": [12.21, 17.24], "includesElement__glawe_number": [77, 65], "includesElement__group_id": [2, 10], "includesElement__heat_of_formation": [324.0, 376.6], "includesElement__is_radioactive": [false], "includesElement__lattice_constant": [2.29, 3.89], "includesElement__mendeleev_number": [75, 68], "includesElement__molar_heat_capacity": [16.443, 25.98], "includesElement__period": [2, 5], "includesElement__pettifor_number": [77, 69], "includesElement__specific_heat_capacity": [1.825, 0.246], "includesElement__vdw_radius": [153.0, 210.0], "includesElement__vdw_radius_alvarez": [198.0, 215.0], "includesElement__vdw_radius_mm3": [223.0, 237.0], "includesElement__vdw_radius_uff": [274.5, 289.9], "includesElement__abundance_sea": [5.6e-06], "includesElement__atomic_weight_uncertainty": [5e-07, 0.01], "includesElement__c6_gb": [214.0, 628.0], "includesElement__covalent_radius_bragg": [115.0], "includesElement__electronegativity_allen": [9.323, 9.402], "includesElement__en_allen": [9.323, 9.402], "includesElement__metallic_radius": [89.0, 128.0], "includesElement__metallic_radius_c12": [112.0, 137.0], "includesElement__thermal_conductivity": [201.0, 71.8], "includesElement__vdw_radius_batsanov": [190.0, 205.0], "includesElement__c6": [227.0], "includesElement__is_monoisotopic": [true], "includesElement__vdw_radius_truhlar": [153.0], "includesElement__gas_basicity": [673.4], "includesElement__proton_affinity": [696.0], "formula": ["Be5Pd1"], "spacegroup": ["216"], "thermalConductivity": [23.6882], "icsd": ["58729"], "band_gap": [0.0], "density": [4.71489], "density_atomic": [8.891687], "deprecated": [false], "efermi": [4.966705], "energy_above_hull": [0.0], "energy_per_atom": [-4.294833], "formation_energy_per_atom": [-0.3153419], "homogeneous_poisson": [0.145], "is_gap_direct": [false], "is_magnetic": [false], "is_metal": [true], "is_stable": [true], "nelements": [2], "nsites": [6], "num_magnetic_sites": [0], "num_unique_magnetic_sites": [0], "theoretical": [false], "total_magnetization": [0.0], "total_magnetization_normalized_formula_units": [0.0], "total_magnetization_normalized_vol": [0.0], "uncorrected_energy_per_atom": [-7.761055], "universal_anisotropy": [0.014], "volume": [53.35012], "equilibrium_reaction_energy_per_atom": [-0.1177717]}