{"includesElement": ["", "Mg", "F", "Eu"], "includesElement___series_id": [4, 6, 9], "includesElement__abundance_crust": [23300.0, 585.0, 2.0], "includesElement__atomic_number": [12, 9, 63], "includesElement__atomic_radius": [150.0, 50.0, 185.0], "includesElement__atomic_radius_rahm": [240.0, 163.0, 280.0], "includesElement__atomic_volume": [14.0, 17.1, 28.9], "includesElement__atomic_weight": [24.305, 18.9984, 151.964], "includesElement__covalent_radius_cordero": [141.0, 57.0, 198.0], "includesElement__covalent_radius_pyykko": [139.0, 64.0, 168.0], "includesElement__covalent_radius_pyykko_double": [132.0, 59.0, 134.0], "includesElement__covalent_radius_pyykko_triple": [127.0, 53.0], "includesElement__density": [1.74, 0.001553, 5.24], "includesElement__dipole_polarizability": [71.2, 3.74, 184.0], "includesElement__dipole_polarizability_unc": [0.4, 0.08, 20.0], "includesElement__discovery_year": [1808, 1886, 1901], "includesElement__electronegativity_allred-rochow": [0.0001475079, 0.001269531, 0.0001009779], "includesElement__electronegativity_cottrell-sutton": [0.1431908, 0.2850439, 0.130247], "includesElement__electronegativity_ghosh": [0.121644, 0.344443, 0.189935], "includesElement__electronegativity_gordy": [0.0205036, 0.08125, 0.01696429], "includesElement__electronegativity_mulliken": [3.823117, 10.412, 3.267192], "includesElement__electronegativity_nagle": [0.3039835, 1.232373, 0.365714], "includesElement__electronegativity_pauling": [1.31, 3.98], "includesElement__electronegativity_sanderson": [0.1524211, 1.017681, 0.508508], "includesElement__en_ghosh": [0.121644, 0.344443, 0.189935], "includesElement__en_pauling": [1.31, 3.98], "includesElement__evaporation_heat": [131.8, 6.54, 176.0], "includesElement__fusion_heat": [9.2, 0.51], "includesElement__glawe_number": [73, 102, 17], "includesElement__group_id": [2, 17], "includesElement__heat_of_formation": [147.1, 79.335, 177.4], "includesElement__is_radioactive": [false], "includesElement__lattice_constant": [3.21, 4.61], "includesElement__mendeleev_number": [76, 106, 25], "includesElement__molar_heat_capacity": [24.869, 31.304, 27.66], "includesElement__period": [3, 2, 6], "includesElement__pettifor_number": [73, 102, 18], "includesElement__specific_heat_capacity": [1.023, 0.824, 0.182], "includesElement__vdw_radius": [173.0, 147.0, 235.0], "includesElement__vdw_radius_alvarez": [251.0, 146.0, 287.0], "includesElement__vdw_radius_mm3": [243.0, 171.0, 294.0], "includesElement__vdw_radius_uff": [302.1, 336.4, 349.3], "includesElement__abundance_sea": [1290.0, 1.3, 1.3e-07], "includesElement__c6_gb": [629.0, 10.2, 2940.0], "includesElement__covalent_radius_bragg": [142.0, 67.0], "includesElement__electronegativity_allen": [7.646, 24.8], "includesElement__en_allen": [7.646, 24.8], "includesElement__metallic_radius": [136.0], "includesElement__metallic_radius_c12": [160.0], "includesElement__thermal_conductivity": [156.0, 0.028, 13.9], "includesElement__vdw_radius_batsanov": [220.0, 150.0], "includesElement__c6": [626.0, 9.52], "includesElement__gas_basicity": [797.3, 315.1], "includesElement__proton_affinity": [819.6, 340.1], "includesElement__vdw_radius_bondi": [173.0, 147.0], "includesElement__electron_affinity": [3.40119, 0.864], "includesElement__atomic_weight_uncertainty": [6e-09, 0.001], "includesElement__is_monoisotopic": [true], "includesElement__vdw_radius_dreiding": [347.2], "includesElement__vdw_radius_rt": [146.0], "formula": ["Eu2F8Mg2"], "spacegroup": ["63"], "thermalConductivity": [2.44329], "icsd": ["86246"], "band_gap": [0.2858], "density": [4.889688], "density_atomic": [14.27807], "deprecated": [false], "efermi": [4.443962], "energy_above_hull": [0.05874857], "energy_per_atom": [-7.148435], "formation_energy_per_atom": [-3.887685], "is_gap_direct": [false], "is_magnetic": [true], "is_metal": [false], "is_stable": [false], "nelements": [3], "nsites": [12], "num_magnetic_sites": [2], "num_unique_magnetic_sites": [1], "theoretical": [false], "total_magnetization": [13.99968], "total_magnetization_normalized_formula_units": [6.999838], "total_magnetization_normalized_vol": [0.08170848], "uncorrected_energy_per_atom": [-6.840435], "volume": [171.3369], "cbm": [4.5876], "vbm": [4.3018]}