{"includesElement": ["", "O", "Mn", "Ta"], "includesElement___series_id": [1, 8], "includesElement__abundance_crust": [461000.0, 950.0, 2.0], "includesElement__atomic_number": [8, 25, 73], "includesElement__atomic_radius": [60.0, 140.0, 145.0], "includesElement__atomic_radius_rahm": [171.0, 242.0, 258.0], "includesElement__atomic_volume": [14.0, 7.39, 10.9], "includesElement__atomic_weight": [15.999, 54.93804, 180.9479], "includesElement__covalent_radius_cordero": [66.0, 150.0, 170.0], "includesElement__covalent_radius_pyykko": [63.0, 119.0, 146.0], "includesElement__covalent_radius_pyykko_double": [57.0, 105.0, 126.0], "includesElement__covalent_radius_pyykko_triple": [53.0, 103.0, 119.0], "includesElement__density": [0.001308, 7.3, 16.4], "includesElement__dipole_polarizability": [5.3, 68.0, 74.0], "includesElement__dipole_polarizability_unc": [0.2, 9.0, 20.0], "includesElement__discovery_year": [1774, 1802], "includesElement__electron_affinity": [1.461113, 0.322], "includesElement__electronegativity_allred-rochow": [0.001146384, 0.0002542193, 0.0001548133], "includesElement__electronegativity_cottrell-sutton": [0.2687419, 0.1739313, 0.1503421], "includesElement__electronegativity_ghosh": [0.304575, 0.1352844, 0.234581], "includesElement__electronegativity_gordy": [0.07222222, 0.0302521, 0.02260274], "includesElement__electronegativity_mulliken": [7.539584, 3.717009, 3.935785], "includesElement__electronegativity_nagle": [1.042218, 0.4686656, 0.4072985], "includesElement__electronegativity_pauling": [3.44, 1.55, 1.5], "includesElement__electronegativity_sanderson": [0.9416494, 0.6707264, 0.8358832], "includesElement__en_ghosh": [0.304575, 0.1352844, 0.234581], "includesElement__en_pauling": [3.44, 1.55, 1.5], "includesElement__glawe_number": [97, 72, 52], "includesElement__group_id": [16, 7, 5], "includesElement__heat_of_formation": [249.229, 283.3, 782.0], "includesElement__is_radioactive": [false], "includesElement__lattice_constant": [6.83, 8.89, 3.31], "includesElement__mendeleev_number": [99, 55, 49], "includesElement__molar_heat_capacity": [29.378, 26.32, 25.36], "includesElement__period": [2, 4, 6], "includesElement__pettifor_number": [101, 60, 53], "includesElement__specific_heat_capacity": [0.918, 0.479, 0.14], "includesElement__vdw_radius": [152.0, 205.0, 222.0], "includesElement__vdw_radius_alvarez": [150.0, 245.0, 253.0], "includesElement__vdw_radius_mm3": [182.0, 224.0, 243.0], "includesElement__vdw_radius_uff": [350.0, 296.1, 317.0], "includesElement__abundance_sea": [857000.0, 0.0002, 2e-06], "includesElement__c6_gb": [16.7, 635.0, 887.0], "includesElement__covalent_radius_bragg": [65.0, 147.0], "includesElement__electronegativity_allen": [21.36, 10.34, 7.93], "includesElement__en_allen": [21.36, 10.34, 7.93], "includesElement__thermal_conductivity": [0.027, 57.5], "includesElement__vdw_radius_batsanov": [155.0, 205.0, 220.0], "includesElement__c6": [15.6, 552.0], "includesElement__vdw_radius_dreiding": [340.46], "includesElement__gas_basicity": [459.6, 774.4], "includesElement__proton_affinity": [485.2, 797.3], "includesElement__vdw_radius_bondi": [152.0], "includesElement__vdw_radius_rt": [158.0], "includesElement__evaporation_heat": [221.0, 758.0], "includesElement__fusion_heat": [13.4, 24.7], "includesElement__atomic_weight_uncertainty": [3e-06, 2e-05], "includesElement__metallic_radius": [118.0, 134.0], "includesElement__metallic_radius_c12": [127.0, 146.0], "includesElement__is_monoisotopic": [true], "formula": ["Mn2O3Ta1"], "spacegroup": ["191"], "thermalConductivity": [7.0869], "icsd": ["15995"], "band_gap": [0.0], "density": [8.124306], "density_atomic": [11.54206], "deprecated": [false], "efermi": [5.840239], "energy_above_hull": [1.006521], "energy_per_atom": [-8.822168], "formation_energy_per_atom": [-1.31421], "is_gap_direct": [false], "is_magnetic": [true], "is_metal": [true], "is_stable": [false], "nelements": [3], "nsites": [6], "num_magnetic_sites": [3], "num_unique_magnetic_sites": [2], "theoretical": [false], "total_magnetization": [8.628877], "total_magnetization_normalized_formula_units": [8.628877], "total_magnetization_normalized_vol": [0.1246005], "uncorrected_energy_per_atom": [-7.922668], "volume": [69.25237]}