{"includesElement": ["", "C"], "includesElement___series_id": [1], "includesElement__abundance_crust": [200.0], "includesElement__atomic_number": [6], "includesElement__atomic_radius": [70.0], "includesElement__atomic_radius_rahm": [190.0], "includesElement__atomic_volume": [5.3], "includesElement__atomic_weight": [12.011], "includesElement__covalent_radius_cordero": [73.0], "includesElement__covalent_radius_pyykko": [75.0], "includesElement__covalent_radius_pyykko_double": [67.0], "includesElement__covalent_radius_pyykko_triple": [60.0], "includesElement__density": [2.2], "includesElement__dipole_polarizability": [11.3], "includesElement__dipole_polarizability_unc": [0.2], "includesElement__electron_affinity": [1.262119], "includesElement__electronegativity_allred-rochow": [0.0005777778], "includesElement__electronegativity_cottrell-sutton": [0.2081666], "includesElement__electronegativity_ghosh": [0.224776], "includesElement__electronegativity_gordy": [0.04333333], "includesElement__electronegativity_mulliken": [6.261208], "includesElement__electronegativity_nagle": [0.7073926], "includesElement__electronegativity_pauling": [2.55], "includesElement__electronegativity_sanderson": [0.427525], "includesElement__en_ghosh": [0.224776], "includesElement__en_pauling": [2.55], "includesElement__glawe_number": [87], "includesElement__group_id": [14], "includesElement__heat_of_formation": [716.87], "includesElement__is_radioactive": [false], "includesElement__lattice_constant": [3.57], "includesElement__mendeleev_number": [87], "includesElement__molar_heat_capacity": [8.517], "includesElement__period": [2], "includesElement__pettifor_number": [95], "includesElement__specific_heat_capacity": [0.709], "includesElement__vdw_radius": [170.0], "includesElement__vdw_radius_alvarez": [177.0], "includesElement__vdw_radius_mm3": [204.0], "includesElement__vdw_radius_uff": [385.1], "includesElement__abundance_sea": [28.0], "includesElement__c6_gb": [47.9], "includesElement__covalent_radius_bragg": [77.0], "includesElement__electronegativity_allen": [15.05], "includesElement__en_allen": [15.05], "includesElement__metallic_radius_c12": [86.0], "includesElement__thermal_conductivity": [1.59], "includesElement__vdw_radius_batsanov": [170.0], "includesElement__c6": [46.6], "includesElement__vdw_radius_dreiding": [389.83], "includesElement__vdw_radius_bondi": [170.0], "includesElement__vdw_radius_rt": [177.0], "formula": ["C4"], "spacegroup": ["194"], "thermalConductivity": [272.257], "icsd": ["88822"], "band_gap": [3.3395], "density": [3.526074], "density_atomic": [5.656216], "deprecated": [false], "efermi": [10.28674], "energy_above_hull": [0.1634013], "energy_per_atom": [-9.065264], "formation_energy_per_atom": [0.1634013], "homogeneous_poisson": [0.07], "is_gap_direct": [false], "is_magnetic": [false], "is_metal": [false], "is_stable": [false], "nelements": [1], "nsites": [4], "num_magnetic_sites": [0], "num_unique_magnetic_sites": [0], "theoretical": [false], "total_magnetization": [0.0], "total_magnetization_normalized_formula_units": [0.0], "total_magnetization_normalized_vol": [0.0], "uncorrected_energy_per_atom": [-9.065264], "universal_anisotropy": [0.077], "volume": [22.62486], "cbm": [13.2692], "vbm": [9.9297]}