{"includesElement": ["", "Mg", "Sb", "Pd"], "includesElement___series_id": [4, 5, 8], "includesElement__abundance_crust": [23300.0, 0.2, 0.015], "includesElement__atomic_number": [12, 51, 46], "includesElement__atomic_radius": [150.0, 145.0, 140.0], "includesElement__atomic_radius_rahm": [240.0, 246.0, 215.0], "includesElement__atomic_volume": [14.0, 18.4, 8.9], "includesElement__atomic_weight": [24.305, 121.76, 106.42], "includesElement__covalent_radius_cordero": [141.0, 139.0], "includesElement__covalent_radius_pyykko": [139.0, 140.0, 120.0], "includesElement__covalent_radius_pyykko_double": [132.0, 133.0, 117.0], "includesElement__covalent_radius_pyykko_triple": [127.0, 112.0], "includesElement__density": [1.74, 6.68, 12.0], "includesElement__dipole_polarizability": [71.2, 43.0, 26.14], "includesElement__dipole_polarizability_unc": [0.4, 2.0, 0.1], "includesElement__discovery_year": [1808, 1803], "includesElement__electronegativity_allred-rochow": [0.0001475079, 0.0003214286, 0.0004756944], "includesElement__electronegativity_cottrell-sutton": [0.1431908, 0.212132, 0.2389212], "includesElement__electronegativity_ghosh": [0.121644, 0.1918774, 0.1440276], "includesElement__electronegativity_gordy": [0.0205036, 0.045, 0.05708333], "includesElement__electronegativity_mulliken": [3.823117, 4.827195, 4.44943], "includesElement__electronegativity_nagle": [0.3039835, 0.4880907, 0.7259357], "includesElement__electronegativity_pauling": [1.31, 2.05, 2.2], "includesElement__electronegativity_sanderson": [0.1524211, 0.7762722, 1.124263], "includesElement__en_ghosh": [0.121644, 0.1918774, 0.1440276], "includesElement__en_pauling": [1.31, 2.05, 2.2], "includesElement__evaporation_heat": [131.8, 195.2, 372.4], "includesElement__fusion_heat": [9.2, 20.08, 17.24], "includesElement__glawe_number": [73, 91, 65], "includesElement__group_id": [2, 15, 10], "includesElement__heat_of_formation": [147.1, 264.4, 376.6], "includesElement__is_radioactive": [false], "includesElement__lattice_constant": [3.21, 4.51, 3.89], "includesElement__mendeleev_number": [76, 96, 68], "includesElement__molar_heat_capacity": [24.869, 25.23, 25.98], "includesElement__period": [3, 5], "includesElement__pettifor_number": [73, 88, 69], "includesElement__specific_heat_capacity": [1.023, 0.207, 0.246], "includesElement__vdw_radius": [173.0, 206.0, 210.0], "includesElement__vdw_radius_alvarez": [251.0, 247.0, 215.0], "includesElement__vdw_radius_mm3": [243.0, 252.0, 237.0], "includesElement__vdw_radius_uff": [302.1, 442.0, 289.9], "includesElement__abundance_sea": [1290.0, 0.00024], "includesElement__c6_gb": [629.0, 504.0, 628.0], "includesElement__covalent_radius_bragg": [142.0, 140.0], "includesElement__electronegativity_allen": [7.646, 11.74, 9.402], "includesElement__en_allen": [7.646, 11.74, 9.402], "includesElement__metallic_radius": [136.0, 139.0, 128.0], "includesElement__metallic_radius_c12": [160.0, 166.0, 137.0], "includesElement__thermal_conductivity": [156.0, 24.43, 71.8], "includesElement__vdw_radius_batsanov": [220.0, 205.0], "includesElement__c6": [626.0, 492.0], "includesElement__gas_basicity": [797.3, 673.4], "includesElement__proton_affinity": [819.6, 696.0], "includesElement__vdw_radius_bondi": [173.0], "includesElement__electron_affinity": [1.046, 0.562], "includesElement__atomic_weight_uncertainty": [0.001, 0.01], "includesElement__vdw_radius_dreiding": [435.0], "includesElement__vdw_radius_truhlar": [206.0], "formula": ["Mg1Pd1Sb1"], "spacegroup": ["216"], "thermalConductivity": [3.06506], "icsd": ["44825"], "band_gap": [0.0], "density": [6.726581], "density_atomic": [20.77634], "deprecated": [false], "efermi": [6.232079], "energy_above_hull": [0.0], "energy_per_atom": [-4.263757], "formation_energy_per_atom": [-0.617306], "homogeneous_poisson": [0.335], "is_gap_direct": [false], "is_magnetic": [false], "is_metal": [true], "is_stable": [true], "nelements": [3], "nsites": [3], "num_magnetic_sites": [0], "num_unique_magnetic_sites": [0], "theoretical": [false], "total_magnetization": [0.0], "total_magnetization_normalized_formula_units": [0.0], "total_magnetization_normalized_vol": [0.0], "uncorrected_energy_per_atom": [-18.28011], "universal_anisotropy": [0.083], "volume": [62.32902], "equilibrium_reaction_energy_per_atom": [-0.04556644]}