{"includesElement": ["", "Ba", "O", "S"], "includesElement___series_id": [4, 1], "includesElement__abundance_crust": [425.0, 461000.0, 350.0], "includesElement__atomic_number": [56, 8, 16], "includesElement__atomic_radius": [215.0, 60.0, 100.0], "includesElement__atomic_radius_rahm": [293.0, 171.0, 214.0], "includesElement__atomic_volume": [39.0, 14.0, 15.5], "includesElement__atomic_weight": [137.327, 15.999, 32.06], "includesElement__covalent_radius_cordero": [215.0, 66.0, 105.0], "includesElement__covalent_radius_pyykko": [196.0, 63.0, 103.0], "includesElement__covalent_radius_pyykko_double": [161.0, 57.0, 94.0], "includesElement__covalent_radius_pyykko_triple": [149.0, 53.0, 95.0], "includesElement__density": [3.62, 0.001308, 2.07], "includesElement__dipole_polarizability": [272.0, 5.3, 19.4], "includesElement__dipole_polarizability_unc": [10.0, 0.2, 0.1], "includesElement__discovery_year": [1808, 1774], "includesElement__electron_affinity": [0.14462, 1.461113, 2.077104], "includesElement__electronegativity_allred-rochow": [7.418784e-05, 0.001146384, 0.0005137148], "includesElement__electronegativity_cottrell-sutton": [0.1205853, 0.2687419, 0.2300274], "includesElement__electronegativity_ghosh": [0.1586786, 0.304575, 0.23596], "includesElement__electronegativity_gordy": [0.01454082, 0.07222222, 0.05291262], "includesElement__electronegativity_mulliken": [2.678142, 7.539584, 6.218557], "includesElement__electronegativity_nagle": [0.1944556, 1.042218, 0.6762644], "includesElement__electronegativity_pauling": [0.89, 3.44, 2.58], "includesElement__electronegativity_sanderson": [0.3032951, 0.9416494, 0.6397251], "includesElement__en_ghosh": [0.1586786, 0.304575, 0.23596], "includesElement__en_pauling": [0.89, 3.44, 2.58], "includesElement__evaporation_heat": [142.0, 10.5], "includesElement__fusion_heat": [7.66, 1.23], "includesElement__glawe_number": [14, 97, 96], "includesElement__group_id": [2, 16], "includesElement__heat_of_formation": [179.1, 249.229, 277.17], "includesElement__is_radioactive": [false], "includesElement__lattice_constant": [5.02, 6.83, 10.47], "includesElement__mendeleev_number": [9, 99, 100], "includesElement__molar_heat_capacity": [28.07, 29.378, 22.7], "includesElement__period": [6, 2, 3], "includesElement__pettifor_number": [14, 101, 94], "includesElement__specific_heat_capacity": [0.204, 0.918, 0.708], "includesElement__vdw_radius": [268.0, 152.0, 180.0], "includesElement__vdw_radius_alvarez": [303.0, 150.0, 189.0], "includesElement__vdw_radius_mm3": [307.0, 182.0, 215.0], "includesElement__vdw_radius_uff": [370.3, 350.0, 403.5], "includesElement__abundance_sea": [0.013, 857000.0, 905.0], "includesElement__atomic_weight_uncertainty": [0.007], "includesElement__c6_gb": [5540.0, 16.7, 140.0], "includesElement__covalent_radius_bragg": [210.0, 65.0, 102.0], "includesElement__electronegativity_allen": [5.211, 21.36, 15.31], "includesElement__en_allen": [5.211, 21.36, 15.31], "includesElement__metallic_radius": [198.0, 104.0], "includesElement__metallic_radius_c12": [222.0, 127.0], "includesElement__vdw_radius_batsanov": [270.0, 155.0, 180.0], "includesElement__vdw_radius_truhlar": [268.0], "includesElement__thermal_conductivity": [0.027, 0.27], "includesElement__c6": [15.6, 134.0], "includesElement__vdw_radius_dreiding": [340.46, 403.0], "includesElement__gas_basicity": [459.6, 640.2], "includesElement__proton_affinity": [485.2, 664.3], "includesElement__vdw_radius_bondi": [152.0, 180.0], "includesElement__vdw_radius_rt": [158.0, 181.0], "formula": ["Ba1O4S1"], "spacegroup": ["216"], "thermalConductivity": [5.87666], "icsd": ["23743"], "band_gap": [4.5086], "density": [3.82935], "density_atomic": [16.86764], "deprecated": [false], "efermi": [0.8573571], "energy_above_hull": [0.132133], "energy_per_atom": [-6.883016], "formation_energy_per_atom": [-2.571951], "homogeneous_poisson": [0.306], "is_gap_direct": [true], "is_magnetic": [false], "is_metal": [false], "is_stable": [false], "nelements": [3], "nsites": [6], "num_magnetic_sites": [0], "num_unique_magnetic_sites": [0], "theoretical": [false], "total_magnetization": [0.0], "total_magnetization_normalized_formula_units": [0.0], "total_magnetization_normalized_vol": [0.0], "uncorrected_energy_per_atom": [-6.425016], "universal_anisotropy": [0.47], "volume": [101.2058], "cbm": [5.3616], "vbm": [0.853]}