{"includesElement": ["", "Cd", "O", "In"], "includesElement___series_id": [8, 1, 7], "includesElement__abundance_crust": [0.15, 461000.0, 0.25], "includesElement__atomic_number": [48, 8, 49], "includesElement__atomic_radius": [155.0, 60.0], "includesElement__atomic_radius_rahm": [238.0, 171.0, 246.0], "includesElement__atomic_volume": [13.1, 14.0, 15.7], "includesElement__atomic_weight": [112.414, 15.999, 114.818], "includesElement__covalent_radius_cordero": [144.0, 66.0, 142.0], "includesElement__covalent_radius_pyykko": [136.0, 63.0, 142.0], "includesElement__covalent_radius_pyykko_double": [144.0, 57.0, 136.0], "includesElement__density": [8.69, 0.001308, 7.31], "includesElement__dipole_polarizability": [46.0, 5.3, 65.0], "includesElement__dipole_polarizability_unc": [2.0, 0.2, 4.0], "includesElement__discovery_year": [1817, 1774, 1863], "includesElement__electronegativity_allred-rochow": [0.000235186, 0.001146384, 0.0002479667], "includesElement__electronegativity_cottrell-sutton": [0.1788443, 0.2687419, 0.1876467], "includesElement__electronegativity_ghosh": [0.1504066, 0.304575, 0.16423], "includesElement__electronegativity_gordy": [0.03198529, 0.07222222, 0.03521127], "includesElement__electronegativity_mulliken": [4.496911, 7.539584, 3.043178], "includesElement__electronegativity_nagle": [0.6389612, 1.042218, 0.3587038], "includesElement__electronegativity_pauling": [1.69, 3.44, 1.78], "includesElement__electronegativity_sanderson": [0.801562, 0.9416494, 0.7172747], "includesElement__en_ghosh": [0.1504066, 0.304575, 0.16423], "includesElement__en_pauling": [1.69, 3.44, 1.78], "includesElement__evaporation_heat": [59.1, 225.1], "includesElement__fusion_heat": [6.11, 3.24], "includesElement__glawe_number": [75, 97, 80], "includesElement__group_id": [12, 16, 13], "includesElement__heat_of_formation": [111.8, 249.229, 243.0], "includesElement__is_radioactive": [false], "includesElement__lattice_constant": [2.98, 6.83, 4.59], "includesElement__mendeleev_number": [78, 99, 84], "includesElement__molar_heat_capacity": [26.02, 29.378, 26.74], "includesElement__period": [5, 2], "includesElement__pettifor_number": [75, 101, 79], "includesElement__specific_heat_capacity": [0.232, 0.918, 0.233], "includesElement__vdw_radius": [218.0, 152.0, 193.0], "includesElement__vdw_radius_alvarez": [249.0, 150.0, 243.0], "includesElement__vdw_radius_mm3": [250.0, 182.0, 264.0], "includesElement__vdw_radius_uff": [284.8, 350.0, 446.3], "includesElement__abundance_sea": [0.00011, 857000.0, 0.02], "includesElement__atomic_weight_uncertainty": [0.004, 0.001], "includesElement__c6_gb": [405.0, 16.7, 643.0], "includesElement__covalent_radius_bragg": [160.0, 65.0], "includesElement__electronegativity_allen": [8.995, 21.36, 9.793], "includesElement__en_allen": [8.995, 21.36, 9.793], "includesElement__metallic_radius": [138.0, 142.0], "includesElement__metallic_radius_c12": [151.0, 158.0], "includesElement__thermal_conductivity": [96.9, 0.027, 81.8], "includesElement__vdw_radius_batsanov": [220.0, 155.0], "includesElement__covalent_radius_pyykko_triple": [53.0, 146.0], "includesElement__electron_affinity": [1.461113, 0.3], "includesElement__c6": [15.6, 779.0], "includesElement__vdw_radius_dreiding": [340.46, 459.0], "includesElement__gas_basicity": [459.6], "includesElement__proton_affinity": [485.2], "includesElement__vdw_radius_bondi": [152.0, 193.0], "includesElement__vdw_radius_rt": [158.0], "formula": ["Cd2In4O8"], "spacegroup": ["227"], "thermalConductivity": [2.44862], "icsd": ["159740"], "band_gap": [0.9137], "density": [6.877525], "density_atomic": [14.00531], "deprecated": [false], "efermi": [3.144947], "energy_above_hull": [0.0], "energy_per_atom": [-14.43415], "formation_energy_per_atom": [-1.704892], "is_gap_direct": [false], "is_magnetic": [false], "is_metal": [false], "is_stable": [true], "nelements": [3], "nsites": [14], "num_magnetic_sites": [0], "num_unique_magnetic_sites": [0], "theoretical": [false], "total_magnetization": [0.0], "total_magnetization_normalized_formula_units": [0.0], "total_magnetization_normalized_vol": [0.0], "uncorrected_energy_per_atom": [-14.43415], "volume": [196.0743], "cbm": [4.0197], "e_electronic": [5.019489], "e_ionic": [6.441249], "e_total": [11.46074], "equilibrium_reaction_energy_per_atom": [-0.01681762], "n": [2.240422], "vbm": [3.106]}