{"includesElement": ["", "Hg", "Y"], "includesElement___series_id": [8], "includesElement__abundance_crust": [0.085, 33.0], "includesElement__atomic_number": [80, 39], "includesElement__atomic_radius": [150.0, 180.0], "includesElement__atomic_radius_rahm": [229.0, 274.0], "includesElement__atomic_volume": [14.8, 19.8], "includesElement__atomic_weight": [200.592, 88.90584], "includesElement__covalent_radius_cordero": [132.0, 190.0], "includesElement__covalent_radius_pyykko": [133.0, 163.0], "includesElement__covalent_radius_pyykko_double": [142.0, 130.0], "includesElement__density": [13.5336, 4.47], "includesElement__dipole_polarizability": [33.91, 162.0], "includesElement__dipole_polarizability_unc": [0.34, 12.0], "includesElement__electronegativity_allred-rochow": [0.0002459155, 0.0001129135], "includesElement__electronegativity_cottrell-sutton": [0.1808501, 0.1356647], "includesElement__electronegativity_ghosh": [0.169, 0.1216986], "includesElement__electronegativity_gordy": [0.03270677, 0.01840491], "includesElement__electronegativity_mulliken": [5.218752, 3.26213], "includesElement__electronegativity_nagle": [0.7073231, 0.2645668], "includesElement__electronegativity_pauling": [1.9, 1.22], "includesElement__electronegativity_sanderson": [1.164789, 0.3923941], "includesElement__en_ghosh": [0.169, 0.1216986], "includesElement__en_pauling": [1.9, 1.22], "includesElement__evaporation_heat": [58.5, 367.0], "includesElement__fusion_heat": [2.295, 11.5], "includesElement__glawe_number": [76, 21], "includesElement__group_id": [12, 3], "includesElement__heat_of_formation": [61.38, 424.7], "includesElement__is_radioactive": [false], "includesElement__lattice_constant": [2.99, 3.65], "includesElement__mendeleev_number": [79, 12], "includesElement__molar_heat_capacity": [27.983, 26.53], "includesElement__period": [6, 5], "includesElement__pettifor_number": [74, 19], "includesElement__specific_heat_capacity": [0.14, 0.298], "includesElement__vdw_radius": [223.0, 232.0], "includesElement__vdw_radius_alvarez": [245.0, 275.0], "includesElement__vdw_radius_mm3": [253.0, 271.0], "includesElement__vdw_radius_uff": [270.5, 334.5], "includesElement__abundance_sea": [3e-05, 1.3e-05], "includesElement__atomic_weight_uncertainty": [0.003, 2e-05], "includesElement__c6_gb": [268.0, 2600.0], "includesElement__electronegativity_allen": [10.44, 6.631], "includesElement__en_allen": [10.44, 6.631], "includesElement__metallic_radius": [139.0, 162.0], "includesElement__metallic_radius_c12": [151.0, 180.0], "includesElement__thermal_conductivity": [8.3], "includesElement__vdw_radius_batsanov": [205.0, 240.0], "includesElement__covalent_radius_pyykko_triple": [124.0], "includesElement__discovery_year": [1789], "includesElement__electron_affinity": [0.307], "includesElement__is_monoisotopic": [true], "includesElement__gas_basicity": [945.9], "includesElement__proton_affinity": [967.0], "formula": ["Hg6Y2"], "spacegroup": ["194"], "thermalConductivity": [0.466969, 0.469715], "icsd": ["104369", "639298"], "band_gap": [0.0], "density": [12.20178], "density_atomic": [23.49851], "deprecated": [false], "efermi": [3.570845], "energy_above_hull": [0.0], "energy_per_atom": [-42.51377], "formation_energy_per_atom": [-0.4095198], "homogeneous_poisson": [0.339], "is_gap_direct": [false], "is_magnetic": [false], "is_metal": [true], "is_stable": [true], "nelements": [2], "nsites": [8], "num_magnetic_sites": [0], "num_unique_magnetic_sites": [0], "theoretical": [false], "total_magnetization": [2.3e-06], "total_magnetization_normalized_formula_units": [1.15e-06], "total_magnetization_normalized_vol": [1.223482e-08], "uncorrected_energy_per_atom": [-42.51377], "universal_anisotropy": [0.083], "volume": [187.9881], "equilibrium_reaction_energy_per_atom": [-0.05370136]}