{"includesElement": ["", "Ba", "Ge", "Pt"], "includesElement___series_id": [4, 5, 8], "includesElement__abundance_crust": [425.0, 1.5, 0.005], "includesElement__atomic_number": [56, 32, 78], "includesElement__atomic_radius": [215.0, 125.0, 135.0], "includesElement__atomic_radius_rahm": [293.0, 234.0, 230.0], "includesElement__atomic_volume": [39.0, 13.6, 9.1], "includesElement__atomic_weight": [137.327, 72.63, 195.084], "includesElement__covalent_radius_cordero": [215.0, 120.0, 136.0], "includesElement__covalent_radius_pyykko": [196.0, 121.0, 123.0], "includesElement__covalent_radius_pyykko_double": [161.0, 111.0, 112.0], "includesElement__covalent_radius_pyykko_triple": [149.0, 114.0, 110.0], "includesElement__density": [3.62, 5.3234, 21.5], "includesElement__dipole_polarizability": [272.0, 40.0, 48.0], "includesElement__dipole_polarizability_unc": [10.0, 1.0, 4.0], "includesElement__discovery_year": [1808, 1886, 1735], "includesElement__electron_affinity": [0.14462, 1.232712, 2.128], "includesElement__electronegativity_allred-rochow": [7.418784e-05, 0.0003859026, 0.0002346487], "includesElement__electronegativity_cottrell-sutton": [0.1205853, 0.2160884, 0.1698876], "includesElement__electronegativity_ghosh": [0.1586786, 0.1895892, 0.25691], "includesElement__electronegativity_gordy": [0.01454082, 0.04669421, 0.02886179], "includesElement__electronegativity_mulliken": [2.678142, 4.566073, 5.543415], "includesElement__electronegativity_nagle": [0.1944556, 0.4641589, 0.5928156], "includesElement__electronegativity_pauling": [0.89, 2.01, 2.2], "includesElement__electronegativity_sanderson": [0.3032951, 0.8001471, 1.45101], "includesElement__en_ghosh": [0.1586786, 0.1895892, 0.25691], "includesElement__en_pauling": [0.89, 2.01, 2.2], "includesElement__evaporation_heat": [142.0, 328.0, 470.0], "includesElement__fusion_heat": [7.66, 36.8, 21.76], "includesElement__glawe_number": [14, 84, 64], "includesElement__group_id": [2, 14, 10], "includesElement__heat_of_formation": [179.1, 372.0, 565.7], "includesElement__is_radioactive": [false], "includesElement__lattice_constant": [5.02, 5.66, 3.92], "includesElement__mendeleev_number": [9, 89, 69], "includesElement__molar_heat_capacity": [28.07, 23.222, 25.86], "includesElement__period": [6, 4], "includesElement__pettifor_number": [14, 84, 68], "includesElement__specific_heat_capacity": [0.204, 0.32, 0.133], "includesElement__vdw_radius": [268.0, 211.0, 213.0], "includesElement__vdw_radius_alvarez": [303.0, 229.0], "includesElement__vdw_radius_mm3": [307.0, 244.0, 239.0], "includesElement__vdw_radius_uff": [370.3, 428.0, 275.4], "includesElement__abundance_sea": [0.013, 5e-05], "includesElement__atomic_weight_uncertainty": [0.007, 0.008, 0.009], "includesElement__c6_gb": [5540.0, 365.0, 470.0], "includesElement__covalent_radius_bragg": [210.0], "includesElement__electronegativity_allen": [5.211, 11.8, 10.16], "includesElement__en_allen": [5.211, 11.8, 10.16], "includesElement__metallic_radius": [198.0, 124.0, 130.0], "includesElement__metallic_radius_c12": [222.0, 144.0, 139.0], "includesElement__vdw_radius_batsanov": [270.0, 210.0, 205.0], "includesElement__vdw_radius_truhlar": [268.0, 211.0], "includesElement__thermal_conductivity": [60.2, 71.6], "includesElement__c6": [354.0], "includesElement__vdw_radius_dreiding": [427.0], "formula": ["Ba4Ge4Pt4"], "spacegroup": ["198"], "thermalConductivity": [0.95124], "icsd": ["106309"], "band_gap": [0.0], "density": [8.537303], "density_atomic": [26.26134], "deprecated": [false], "efermi": [4.460711], "energy_above_hull": [0.0], "energy_per_atom": [-5.104557], "formation_energy_per_atom": [-0.9001779], "homogeneous_poisson": [0.342], "is_gap_direct": [false], "is_magnetic": [false], "is_metal": [true], "is_stable": [true], "nelements": [3], "nsites": [12], "num_magnetic_sites": [0], "num_unique_magnetic_sites": [0], "theoretical": [false], "total_magnetization": [0.0], "total_magnetization_normalized_formula_units": [0.0], "total_magnetization_normalized_vol": [0.0], "uncorrected_energy_per_atom": [-31.60554], "universal_anisotropy": [0.197], "volume": [315.1361], "equilibrium_reaction_energy_per_atom": [-0.2159908]}