{"includesElement": ["", "Ca", "Sn", "Ir"], "includesElement___series_id": [4, 7, 8], "includesElement__abundance_crust": [41500.0, 2.3, 0.001], "includesElement__atomic_number": [20, 50, 77], "includesElement__atomic_radius": [180.0, 145.0, 135.0], "includesElement__atomic_radius_rahm": [270.0, 248.0, 240.0], "includesElement__atomic_volume": [29.9, 16.3, 8.54], "includesElement__atomic_weight": [40.078, 118.71, 192.217], "includesElement__covalent_radius_cordero": [176.0, 139.0, 141.0], "includesElement__covalent_radius_pyykko": [171.0, 140.0, 122.0], "includesElement__covalent_radius_pyykko_double": [147.0, 130.0, 115.0], "includesElement__covalent_radius_pyykko_triple": [133.0, 132.0, 107.0], "includesElement__density": [1.54, 7.287, 22.5622], "includesElement__dipole_polarizability": [160.8, 53.0, 54.0], "includesElement__dipole_polarizability_unc": [4.0, 6.0, 7.0], "includesElement__discovery_year": [1808, 1804], "includesElement__electron_affinity": [0.02455, 1.112067, 1.5638], "includesElement__electronegativity_allred-rochow": [9.746589e-05, 0.0002882653, 0.0002620263], "includesElement__electronegativity_cottrell-sutton": [0.1290994, 0.2008909, 0.1787938], "includesElement__electronegativity_ghosh": [0.1154119, 0.178052, 0.25106], "includesElement__electronegativity_gordy": [0.01666667, 0.04035714, 0.03196721], "includesElement__electronegativity_mulliken": [3.068853, 4.227992, 5.26541], "includesElement__electronegativity_nagle": [0.2316939, 0.4225986, 0.5503212], "includesElement__electronegativity_pauling": [1.0, 1.96, 2.2], "includesElement__electronegativity_sanderson": [0.1901577, 0.7622797, 1.475998], "includesElement__en_ghosh": [0.1154119, 0.178052, 0.25106], "includesElement__en_pauling": [1.0, 1.96, 2.2], "includesElement__evaporation_heat": [153.6, 296.0, 604.0], "includesElement__fusion_heat": [9.2, 7.07, 27.61], "includesElement__glawe_number": [16, 83, 62], "includesElement__group_id": [2, 14, 9], "includesElement__heat_of_formation": [177.8, 301.2, 669.0], "includesElement__is_radioactive": [false], "includesElement__lattice_constant": [5.58, 5.82, 3.84], "includesElement__mendeleev_number": [7, 90, 65], "includesElement__molar_heat_capacity": [25.929, 26.99, 25.1], "includesElement__period": [4, 5, 6], "includesElement__pettifor_number": [16, 83, 65], "includesElement__specific_heat_capacity": [0.647, 0.227, 0.131], "includesElement__vdw_radius": [231.0, 217.0, 213.0], "includesElement__vdw_radius_alvarez": [262.0, 242.0, 241.0], "includesElement__vdw_radius_mm3": [281.0, 259.0, 236.0], "includesElement__vdw_radius_uff": [339.9, 439.2, 284.0], "includesElement__abundance_sea": [412.0, 4e-06], "includesElement__atomic_weight_uncertainty": [0.004, 0.007, 0.003], "includesElement__c6_gb": [2230.0, 715.0, 522.0], "includesElement__covalent_radius_bragg": [170.0, 140.0], "includesElement__electronegativity_allen": [6.113, 10.79, 9.96], "includesElement__en_allen": [6.113, 10.79, 9.96], "includesElement__metallic_radius": [174.0, 142.0, 127.0], "includesElement__metallic_radius_c12": [197.0, 163.0, 136.0], "includesElement__vdw_radius_batsanov": [240.0, 225.0, 200.0], "includesElement__c6": [2163.0, 659.0], "includesElement__vdw_radius_truhlar": [231.0], "includesElement__thermal_conductivity": [66.8, 147.0], "includesElement__vdw_radius_dreiding": [447.0], "includesElement__vdw_radius_bondi": [217.0], "formula": ["Ca2Ir2Sn4"], "spacegroup": ["63"], "thermalConductivity": [2.36425], "icsd": ["410773"], "band_gap": [0.0], "density": [8.721382], "density_atomic": [22.35827], "deprecated": [false], "efermi": [7.555396], "energy_above_hull": [0.0], "energy_per_atom": [-5.297158], "formation_energy_per_atom": [-0.5813632], "homogeneous_poisson": [0.28], "is_gap_direct": [false], "is_magnetic": [false], "is_metal": [true], "is_stable": [true], "nelements": [3], "nsites": [8], "num_magnetic_sites": [0], "num_unique_magnetic_sites": [0], "theoretical": [false], "total_magnetization": [0.0], "total_magnetization_normalized_formula_units": [0.0], "total_magnetization_normalized_vol": [0.0], "uncorrected_energy_per_atom": [-27.86244], "universal_anisotropy": [0.874], "volume": [178.8662], "equilibrium_reaction_energy_per_atom": [-0.09750538]}