{"includesElement": ["", "Sn", "Se"], "includesElement___series_id": [7, 1], "includesElement__abundance_crust": [2.3, 0.05], "includesElement__atomic_number": [50, 34], "includesElement__atomic_radius": [145.0, 115.0], "includesElement__atomic_radius_rahm": [248.0, 224.0], "includesElement__atomic_volume": [16.3, 16.5], "includesElement__atomic_weight": [118.71, 78.971], "includesElement__covalent_radius_cordero": [139.0, 120.0], "includesElement__covalent_radius_pyykko": [140.0, 116.0], "includesElement__covalent_radius_pyykko_double": [130.0, 107.0], "includesElement__covalent_radius_pyykko_triple": [132.0, 107.0], "includesElement__density": [7.287, 4.809], "includesElement__dipole_polarizability": [53.0, 28.9], "includesElement__dipole_polarizability_unc": [6.0, 1.0], "includesElement__electron_affinity": [1.112067, 2.02067], "includesElement__electronegativity_allred-rochow": [0.0002882653, 0.0005164982], "includesElement__electronegativity_cottrell-sutton": [0.2008909, 0.2447729], "includesElement__electronegativity_ghosh": [0.178052, 0.2240328], "includesElement__electronegativity_gordy": [0.04035714, 0.05991379], "includesElement__electronegativity_mulliken": [4.227992, 5.886531], "includesElement__electronegativity_nagle": [0.4225986, 0.592131], "includesElement__electronegativity_pauling": [1.96, 2.55], "includesElement__electronegativity_sanderson": [0.7622797, 0.9659121], "includesElement__en_ghosh": [0.178052, 0.2240328], "includesElement__en_pauling": [1.96, 2.55], "includesElement__evaporation_heat": [296.0, 59.7], "includesElement__fusion_heat": [7.07, 5.23], "includesElement__glawe_number": [83, 95], "includesElement__group_id": [14, 16], "includesElement__heat_of_formation": [301.2, 227.2], "includesElement__is_radioactive": [false], "includesElement__lattice_constant": [5.82, 4.36], "includesElement__mendeleev_number": [90, 101], "includesElement__molar_heat_capacity": [26.99, 25.363], "includesElement__period": [5, 4], "includesElement__pettifor_number": [83, 93], "includesElement__specific_heat_capacity": [0.227, 0.321], "includesElement__vdw_radius": [217.0, 190.0], "includesElement__vdw_radius_alvarez": [242.0, 182.0], "includesElement__vdw_radius_mm3": [259.0, 229.0], "includesElement__vdw_radius_uff": [439.2, 420.5], "includesElement__abundance_sea": [4e-06, 0.0002], "includesElement__atomic_weight_uncertainty": [0.007, 0.008], "includesElement__c6_gb": [715.0, 233.0], "includesElement__covalent_radius_bragg": [140.0, 117.0], "includesElement__electronegativity_allen": [10.79, 14.34], "includesElement__en_allen": [10.79, 14.34], "includesElement__metallic_radius": [142.0, 117.0], "includesElement__metallic_radius_c12": [163.0, 140.0], "includesElement__thermal_conductivity": [66.8, 0.52], "includesElement__vdw_radius_batsanov": [225.0, 190.0], "includesElement__c6": [659.0, 210.0], "includesElement__vdw_radius_dreiding": [447.0, 403.0], "includesElement__vdw_radius_bondi": [217.0, 190.0], "includesElement__discovery_year": [1818], "formula": ["Se1Sn1"], "spacegroup": ["225"], "thermalConductivity": [6.21949], "icsd": ["52424"], "band_gap": [0.1189], "density": [6.015513], "density_atomic": [27.28269], "deprecated": [false], "efermi": [5.558194], "energy_above_hull": [0.041186], "energy_per_atom": [-19.94123], "formation_energy_per_atom": [-0.4123603], "homogeneous_poisson": [0.247], "is_gap_direct": [true], "is_magnetic": [false], "is_metal": [false], "is_stable": [false], "nelements": [2], "nsites": [2], "num_magnetic_sites": [0], "num_unique_magnetic_sites": [0], "theoretical": [false], "total_magnetization": [0.0], "total_magnetization_normalized_formula_units": [0.0], "total_magnetization_normalized_vol": [0.0], "uncorrected_energy_per_atom": [-19.94123], "universal_anisotropy": [1.604], "volume": [54.56538], "cbm": [5.6162], "e_electronic": [45.70308], "e_ionic": [0.0], "e_total": [45.70308], "n": [6.760405], "vbm": [5.4973]}