{"includesElement": ["", "O", "K", "Au"], "includesElement___series_id": [1, 3, 8], "includesElement__abundance_crust": [461000.0, 20900.0, 0.004], "includesElement__atomic_number": [8, 19, 79], "includesElement__atomic_radius": [60.0, 220.0, 135.0], "includesElement__atomic_radius_rahm": [171.0, 234.0, 226.0], "includesElement__atomic_volume": [14.0, 45.3, 10.2], "includesElement__atomic_weight": [15.999, 39.0983, 196.9666], "includesElement__covalent_radius_cordero": [66.0, 203.0, 136.0], "includesElement__covalent_radius_pyykko": [63.0, 196.0, 124.0], "includesElement__covalent_radius_pyykko_double": [57.0, 193.0, 121.0], "includesElement__covalent_radius_pyykko_triple": [53.0, 123.0], "includesElement__density": [0.001308, 0.89, 19.3], "includesElement__dipole_polarizability": [5.3, 289.7, 36.0], "includesElement__dipole_polarizability_unc": [0.2, 0.3, 3.0], "includesElement__discovery_year": [1774, 1807], "includesElement__electron_affinity": [1.461113, 0.50147, 2.30863], "includesElement__electronegativity_allred-rochow": [0.001146384, 5.726781e-05, 0.0002406348], "includesElement__electronegativity_cottrell-sutton": [0.2687419, 0.1059457, 0.1727388], "includesElement__electronegativity_ghosh": [0.304575, 0.0981896, 0.26137], "includesElement__electronegativity_gordy": [0.07222222, 0.01122449, 0.02983871], "includesElement__electronegativity_mulliken": [7.539584, 2.421067, 5.767091], "includesElement__electronegativity_nagle": [1.042218, 0.1511299, 0.67354], "includesElement__electronegativity_pauling": [3.44, 0.82, 2.4], "includesElement__electronegativity_sanderson": [0.9416494, 0.1218383, 1.426701], "includesElement__en_ghosh": [0.304575, 0.0981896, 0.26137], "includesElement__en_pauling": [3.44, 0.82, 2.4], "includesElement__glawe_number": [97, 10, 66], "includesElement__group_id": [16, 1, 11], "includesElement__heat_of_formation": [249.229, 89.0, 368.2], "includesElement__is_radioactive": [false], "includesElement__lattice_constant": [6.83, 5.23, 4.08], "includesElement__mendeleev_number": [99, 3, 73], "includesElement__molar_heat_capacity": [29.378, 29.6, 25.418], "includesElement__period": [2, 4, 6], "includesElement__pettifor_number": [101, 10, 70], "includesElement__specific_heat_capacity": [0.918, 0.757, 0.129], "includesElement__vdw_radius": [152.0, 275.0, 214.0], "includesElement__vdw_radius_alvarez": [150.0, 273.0, 232.0], "includesElement__vdw_radius_mm3": [182.0, 309.0, 243.0], "includesElement__vdw_radius_uff": [350.0, 381.2, 329.3], "includesElement__abundance_sea": [857000.0, 399.0, 4e-06], "includesElement__c6_gb": [16.7, 3910.0, 427.0], "includesElement__covalent_radius_bragg": [65.0, 207.0], "includesElement__electronegativity_allen": [21.36, 4.34, 11.33], "includesElement__en_allen": [21.36, 4.34, 11.33], "includesElement__thermal_conductivity": [0.027, 79.0, 318.0], "includesElement__vdw_radius_batsanov": [155.0, 280.0, 210.0], "includesElement__c6": [15.6, 3923.0], "includesElement__vdw_radius_dreiding": [340.46], "includesElement__gas_basicity": [459.6], "includesElement__proton_affinity": [485.2], "includesElement__vdw_radius_bondi": [152.0, 275.0], "includesElement__vdw_radius_rt": [158.0], "includesElement__evaporation_heat": [2.33, 340.0], "includesElement__fusion_heat": [102.5, 12.68], "includesElement__atomic_weight_uncertainty": [0.0001, 5e-06], "includesElement__metallic_radius": [203.0, 134.0], "includesElement__metallic_radius_c12": [235.0, 144.0], "includesElement__is_monoisotopic": [true], "formula": ["Au1K3O1"], "spacegroup": ["221"], "thermalConductivity": [0.987767], "icsd": ["79086"], "band_gap": [0.5612], "density": [3.845922], "density_atomic": [28.51909], "deprecated": [false], "efermi": [0.474192], "energy_above_hull": [0.0], "energy_per_atom": [-3.20291], "formation_energy_per_atom": [-0.8788591], "homogeneous_poisson": [0.242], "is_gap_direct": [false], "is_magnetic": [false], "is_metal": [false], "is_stable": [true], "nelements": [3], "nsites": [5], "num_magnetic_sites": [0], "num_unique_magnetic_sites": [0], "theoretical": [false], "total_magnetization": [0.0], "total_magnetization_normalized_formula_units": [0.0], "total_magnetization_normalized_vol": [0.0], "uncorrected_energy_per_atom": [-15.75494], "universal_anisotropy": [0.289], "volume": [142.5955], "cbm": [0.9767], "e_electronic": [4.955131], "e_ionic": [9.031525], "e_total": [13.98666], "equilibrium_reaction_energy_per_atom": [-0.02756738], "n": [2.226012], "vbm": [0.4155]}