{"includesElement": ["", "F", "U"], "includesElement___series_id": [6, 10], "includesElement__abundance_crust": [585.0, 2.7], "includesElement__atomic_number": [9, 92], "includesElement__atomic_radius": [50.0, 175.0], "includesElement__atomic_radius_rahm": [163.0, 283.0], "includesElement__atomic_volume": [17.1, 12.5], "includesElement__atomic_weight": [18.9984, 238.0289], "includesElement__covalent_radius_cordero": [57.0, 196.0], "includesElement__covalent_radius_pyykko": [64.0, 170.0], "includesElement__covalent_radius_pyykko_double": [59.0, 134.0], "includesElement__covalent_radius_pyykko_triple": [53.0, 118.0], "includesElement__density": [0.001553, 19.1], "includesElement__dipole_polarizability": [3.74, 129.0], "includesElement__dipole_polarizability_unc": [0.08, 17.0], "includesElement__discovery_year": [1886, 1789], "includesElement__electron_affinity": [3.40119], "includesElement__electronegativity_allred-rochow": [0.001269531, 0.0001038062], "includesElement__electronegativity_cottrell-sutton": [0.2850439, 0.1328422], "includesElement__electronegativity_ghosh": [0.344443, 0.13207], "includesElement__electronegativity_gordy": [0.08125, 0.01764706], "includesElement__electronegativity_mulliken": [10.412, 3.097025], "includesElement__electronegativity_nagle": [1.232373, 0.3596283], "includesElement__electronegativity_pauling": [3.98, 1.7], "includesElement__electronegativity_sanderson": [1.017681, 0.618118], "includesElement__en_ghosh": [0.344443, 0.13207], "includesElement__en_pauling": [3.98, 1.7], "includesElement__evaporation_heat": [6.54, 417.0], "includesElement__fusion_heat": [0.51, 12.6], "includesElement__glawe_number": [102, 36], "includesElement__group_id": [17], "includesElement__heat_of_formation": [79.335, 533.0], "includesElement__is_radioactive": [false, true], "includesElement__mendeleev_number": [106, 20], "includesElement__molar_heat_capacity": [31.304, 27.665], "includesElement__period": [2, 7], "includesElement__pettifor_number": [102, 45], "includesElement__specific_heat_capacity": [0.824, 0.116], "includesElement__vdw_radius": [147.0, 241.0], "includesElement__vdw_radius_alvarez": [146.0, 271.0], "includesElement__vdw_radius_mm3": [171.0, 252.0], "includesElement__vdw_radius_uff": [336.4, 339.5], "includesElement__abundance_sea": [1.3, 0.0032], "includesElement__atomic_weight_uncertainty": [6e-09, 3e-05], "includesElement__c6_gb": [10.2], "includesElement__covalent_radius_bragg": [67.0], "includesElement__electronegativity_allen": [24.8], "includesElement__en_allen": [24.8], "includesElement__thermal_conductivity": [0.028, 27.5], "includesElement__vdw_radius_batsanov": [150.0, 230.0], "includesElement__c6": [9.52], "includesElement__is_monoisotopic": [true], "includesElement__vdw_radius_dreiding": [347.2], "includesElement__gas_basicity": [315.1, 973.2], "includesElement__proton_affinity": [340.1, 995.2], "includesElement__vdw_radius_bondi": [147.0], "includesElement__vdw_radius_rt": [146.0], "includesElement__lattice_constant": [2.85], "formula": ["F5U1"], "spacegroup": ["87"], "thermalConductivity": [8.01631], "icsd": ["200459"], "band_gap": [0.7456], "density": [5.998267], "density_atomic": [15.36539], "deprecated": [false], "efermi": [0.6706027], "energy_above_hull": [0.0], "energy_per_atom": [-19.70458], "formation_energy_per_atom": [-3.777857], "homogeneous_poisson": [0.184], "is_gap_direct": [false], "is_magnetic": [true], "is_metal": [false], "is_stable": [true], "nelements": [2], "nsites": [6], "num_magnetic_sites": [1], "num_unique_magnetic_sites": [1], "theoretical": [false], "total_magnetization": [1.0], "total_magnetization_normalized_formula_units": [1.0], "total_magnetization_normalized_vol": [0.01084689], "uncorrected_energy_per_atom": [-19.70458], "universal_anisotropy": [13.662], "volume": [92.19234], "cbm": [1.3093], "equilibrium_reaction_energy_per_atom": [-0.02934517], "vbm": [0.5637]}