{"includesElement": ["", "Ca", "Cd", "Pb"], "includesElement___series_id": [4, 8, 7], "includesElement__abundance_crust": [41500.0, 0.15, 14.0], "includesElement__atomic_number": [20, 48, 82], "includesElement__atomic_radius": [180.0, 155.0], "includesElement__atomic_radius_rahm": [270.0, 238.0, 249.0], "includesElement__atomic_volume": [29.9, 13.1, 18.3], "includesElement__atomic_weight": [40.078, 112.414, 207.2], "includesElement__covalent_radius_cordero": [176.0, 144.0, 146.0], "includesElement__covalent_radius_pyykko": [171.0, 136.0, 144.0], "includesElement__covalent_radius_pyykko_double": [147.0, 144.0, 135.0], "includesElement__covalent_radius_pyykko_triple": [133.0, 137.0], "includesElement__density": [1.54, 8.69, 11.3], "includesElement__dipole_polarizability": [160.8, 46.0, 47.0], "includesElement__dipole_polarizability_unc": [4.0, 2.0, 3.0], "includesElement__discovery_year": [1808, 1817], "includesElement__electron_affinity": [0.02455, 0.3567432], "includesElement__electronegativity_allred-rochow": [9.746589e-05, 0.000235186, 0.000272473], "includesElement__electronegativity_cottrell-sutton": [0.1290994, 0.1788443, 0.1980811], "includesElement__electronegativity_ghosh": [0.1154119, 0.1504066, 0.177911], "includesElement__electronegativity_gordy": [0.01666667, 0.03198529, 0.03923611], "includesElement__electronegativity_mulliken": [3.068853, 4.496911, 3.886711], "includesElement__electronegativity_nagle": [0.2316939, 0.6389612, 0.4398663], "includesElement__electronegativity_pauling": [1.0, 1.69, 1.8], "includesElement__electronegativity_sanderson": [0.1901577, 0.801562, 0.9313226], "includesElement__en_ghosh": [0.1154119, 0.1504066, 0.177911], "includesElement__en_pauling": [1.0, 1.69, 1.8], "includesElement__evaporation_heat": [153.6, 59.1, 177.8], "includesElement__fusion_heat": [9.2, 6.11, 4.77], "includesElement__glawe_number": [16, 75, 82], "includesElement__group_id": [2, 12, 14], "includesElement__heat_of_formation": [177.8, 111.8, 195.2], "includesElement__is_radioactive": [false], "includesElement__lattice_constant": [5.58, 2.98, 4.95], "includesElement__mendeleev_number": [7, 78, 91], "includesElement__molar_heat_capacity": [25.929, 26.02, 26.84], "includesElement__period": [4, 5, 6], "includesElement__pettifor_number": [16, 75, 82], "includesElement__specific_heat_capacity": [0.647, 0.232, 0.13], "includesElement__vdw_radius": [231.0, 218.0, 202.0], "includesElement__vdw_radius_alvarez": [262.0, 249.0, 260.0], "includesElement__vdw_radius_mm3": [281.0, 250.0, 274.0], "includesElement__vdw_radius_uff": [339.9, 284.8, 429.7], "includesElement__abundance_sea": [412.0, 0.00011, 3e-05], "includesElement__atomic_weight_uncertainty": [0.004, 0.1], "includesElement__c6_gb": [2230.0, 405.0, 534.0], "includesElement__covalent_radius_bragg": [170.0, 160.0], "includesElement__electronegativity_allen": [6.113, 8.995, 10.97], "includesElement__en_allen": [6.113, 8.995, 10.97], "includesElement__metallic_radius": [174.0, 138.0, 150.0], "includesElement__metallic_radius_c12": [197.0, 151.0, 170.0], "includesElement__vdw_radius_batsanov": [240.0, 220.0, 230.0], "includesElement__c6": [2163.0], "includesElement__vdw_radius_truhlar": [231.0], "includesElement__thermal_conductivity": [96.9, 35.3], "includesElement__vdw_radius_bondi": [202.0], "formula": ["Ca3Cd3Pb3"], "spacegroup": ["189"], "thermalConductivity": [1.07169], "icsd": ["58877"], "band_gap": [0.0], "density": [7.149301], "density_atomic": [27.84783], "deprecated": [false], "efermi": [4.489892], "energy_above_hull": [0.0], "energy_per_atom": [-2.600305], "formation_energy_per_atom": [-0.3742189], "is_gap_direct": [false], "is_magnetic": [false], "is_metal": [true], "is_stable": [true], "nelements": [3], "nsites": [9], "num_magnetic_sites": [0], "num_unique_magnetic_sites": [0], "theoretical": [false], "total_magnetization": [0.0], "total_magnetization_normalized_formula_units": [0.0], "total_magnetization_normalized_vol": [0.0], "uncorrected_energy_per_atom": [-28.31044], "volume": [250.6305], "equilibrium_reaction_energy_per_atom": [-0.02079812]}