{"includesElement": ["", "N", "Sr", "Mn"], "includesElement___series_id": [1, 4, 8], "includesElement__abundance_crust": [19.0, 370.0, 950.0], "includesElement__atomic_number": [7, 38, 25], "includesElement__atomic_radius": [65.0, 200.0, 140.0], "includesElement__atomic_radius_rahm": [179.0, 279.0, 242.0], "includesElement__atomic_volume": [17.3, 33.7, 7.39], "includesElement__atomic_weight": [14.007, 87.62, 54.93804], "includesElement__covalent_radius_cordero": [71.0, 195.0, 150.0], "includesElement__covalent_radius_pyykko": [71.0, 185.0, 119.0], "includesElement__covalent_radius_pyykko_double": [60.0, 157.0, 105.0], "includesElement__covalent_radius_pyykko_triple": [54.0, 139.0, 103.0], "includesElement__density": [0.001145, 2.64, 7.3], "includesElement__dipole_polarizability": [7.4, 197.2, 68.0], "includesElement__dipole_polarizability_unc": [0.2, 9.0], "includesElement__discovery_year": [1772, 1790, 1774], "includesElement__electron_affinity": [-1.4, 0.048], "includesElement__electronegativity_allred-rochow": [0.000773656, 8.327246e-05, 0.0002542193], "includesElement__electronegativity_cottrell-sutton": [0.2343706, 0.1241185, 0.1739313], "includesElement__electronegativity_ghosh": [0.26493, 0.1185082, 0.1352844], "includesElement__electronegativity_gordy": [0.05492958, 0.01540541, 0.0302521], "includesElement__electronegativity_mulliken": [6.567065, 2.871434, 3.717009], "includesElement__electronegativity_nagle": [0.8774979, 0.2164584, 0.4686656], "includesElement__electronegativity_pauling": [3.04, 0.95, 1.55], "includesElement__electronegativity_sanderson": [0.577482, 0.2631786, 0.6707264], "includesElement__en_ghosh": [0.26493, 0.1185082, 0.1352844], "includesElement__en_pauling": [3.04, 0.95, 1.55], "includesElement__glawe_number": [88, 15, 72], "includesElement__group_id": [15, 2, 7], "includesElement__heat_of_formation": [472.44, 164.0, 283.3], "includesElement__is_radioactive": [false], "includesElement__lattice_constant": [4.039, 6.08, 8.89], "includesElement__mendeleev_number": [93, 8, 55], "includesElement__molar_heat_capacity": [29.124, 26.79, 26.32], "includesElement__period": [2, 5, 4], "includesElement__pettifor_number": [100, 15, 60], "includesElement__specific_heat_capacity": [1.04, 0.306, 0.479], "includesElement__vdw_radius": [155.0, 249.0, 205.0], "includesElement__vdw_radius_alvarez": [166.0, 284.0, 245.0], "includesElement__vdw_radius_mm3": [193.0, 300.0, 224.0], "includesElement__vdw_radius_uff": [366.0, 364.1, 296.1], "includesElement__abundance_sea": [0.5, 7.9, 0.0002], "includesElement__c6_gb": [25.7, 3230.0, 635.0], "includesElement__covalent_radius_bragg": [65.0, 195.0, 147.0], "includesElement__electronegativity_allen": [18.13, 5.695, 10.34], "includesElement__en_allen": [18.13, 5.695, 10.34], "includesElement__metallic_radius_c12": [53.0, 215.0, 127.0], "includesElement__thermal_conductivity": [0.026], "includesElement__vdw_radius_batsanov": [160.0, 255.0, 205.0], "includesElement__c6": [24.2, 3175.0, 552.0], "includesElement__vdw_radius_dreiding": [366.21], "includesElement__gas_basicity": [318.7, 774.4], "includesElement__proton_affinity": [342.2, 797.3], "includesElement__vdw_radius_bondi": [155.0], "includesElement__vdw_radius_rt": [164.0], "includesElement__evaporation_heat": [144.0, 221.0], "includesElement__fusion_heat": [9.2, 13.4], "includesElement__atomic_weight_uncertainty": [0.01, 3e-06], "includesElement__metallic_radius": [191.0, 118.0], "includesElement__vdw_radius_truhlar": [249.0], "includesElement__is_monoisotopic": [true], "formula": ["Mn2N6Sr6"], "spacegroup": ["176"], "thermalConductivity": [1.70322], "icsd": ["80772"], "band_gap": [0.0], "density": [4.457509], "density_atomic": [19.14881], "deprecated": [false], "efermi": [3.765461], "energy_above_hull": [0.0], "energy_per_atom": [-6.478088], "formation_energy_per_atom": [-0.8703544], "homogeneous_poisson": [0.245], "is_gap_direct": [false], "is_magnetic": [true], "is_metal": [true], "is_stable": [true], "nelements": [3], "nsites": [14], "num_magnetic_sites": [2], "num_unique_magnetic_sites": [1], "theoretical": [false], "total_magnetization": [2.35832], "total_magnetization_normalized_formula_units": [1.17916], "total_magnetization_normalized_vol": [0.008796963], "uncorrected_energy_per_atom": [-13.39443], "universal_anisotropy": [0.381], "volume": [268.0834], "equilibrium_reaction_energy_per_atom": [-0.02393859]}