{"includesElement": ["", "Zn", "O", "Pt"], "includesElement___series_id": [8, 1], "includesElement__abundance_crust": [70.0, 461000.0, 0.005], "includesElement__atomic_number": [30, 8, 78], "includesElement__atomic_radius": [135.0, 60.0], "includesElement__atomic_radius_rahm": [222.0, 171.0, 230.0], "includesElement__atomic_volume": [9.2, 14.0, 9.1], "includesElement__atomic_weight": [65.38, 15.999, 195.084], "includesElement__covalent_radius_cordero": [122.0, 66.0, 136.0], "includesElement__covalent_radius_pyykko": [118.0, 63.0, 123.0], "includesElement__covalent_radius_pyykko_double": [120.0, 57.0, 112.0], "includesElement__density": [7.134, 0.001308, 21.5], "includesElement__dipole_polarizability": [38.67, 5.3, 48.0], "includesElement__dipole_polarizability_unc": [0.3, 0.2, 4.0], "includesElement__electronegativity_allred-rochow": [0.0003124102, 0.001146384, 0.0002346487], "includesElement__electronegativity_cottrell-sutton": [0.1920011, 0.2687419, 0.1698876], "includesElement__electronegativity_ghosh": [0.1551518, 0.304575, 0.25691], "includesElement__electronegativity_gordy": [0.03686441, 0.07222222, 0.02886179], "includesElement__electronegativity_mulliken": [4.6971, 7.539584, 5.543415], "includesElement__electronegativity_nagle": [0.6770213, 1.042218, 0.5928156], "includesElement__electronegativity_pauling": [1.65, 3.44, 2.2], "includesElement__electronegativity_sanderson": [0.8100877, 0.9416494, 1.45101], "includesElement__en_ghosh": [0.1551518, 0.304575, 0.25691], "includesElement__en_pauling": [1.65, 3.44, 2.2], "includesElement__evaporation_heat": [114.8, 470.0], "includesElement__fusion_heat": [7.28, 21.76], "includesElement__glawe_number": [74, 97, 64], "includesElement__group_id": [12, 16, 10], "includesElement__heat_of_formation": [130.4, 249.229, 565.7], "includesElement__is_radioactive": [false], "includesElement__lattice_constant": [2.66, 6.83, 3.92], "includesElement__mendeleev_number": [77, 99, 69], "includesElement__molar_heat_capacity": [25.39, 29.378, 25.86], "includesElement__period": [4, 2, 6], "includesElement__pettifor_number": [76, 101, 68], "includesElement__specific_heat_capacity": [0.388, 0.918, 0.133], "includesElement__vdw_radius": [201.0, 152.0, 213.0], "includesElement__vdw_radius_alvarez": [239.0, 150.0, 229.0], "includesElement__vdw_radius_mm3": [229.0, 182.0, 239.0], "includesElement__vdw_radius_uff": [276.3, 350.0, 275.4], "includesElement__abundance_sea": [0.0049, 857000.0], "includesElement__atomic_weight_uncertainty": [0.02, 0.009], "includesElement__c6_gb": [276.0, 16.7, 470.0], "includesElement__covalent_radius_bragg": [132.0, 65.0], "includesElement__electronegativity_allen": [9.395, 21.36, 10.16], "includesElement__en_allen": [9.395, 21.36, 10.16], "includesElement__metallic_radius": [121.0, 130.0], "includesElement__metallic_radius_c12": [134.0, 139.0], "includesElement__thermal_conductivity": [116.0, 0.027, 71.6], "includesElement__vdw_radius_batsanov": [210.0, 155.0, 205.0], "includesElement__c6": [284.0, 15.6], "includesElement__gas_basicity": [586.0, 459.6], "includesElement__proton_affinity": [608.6, 485.2], "includesElement__covalent_radius_pyykko_triple": [53.0, 110.0], "includesElement__discovery_year": [1774, 1735], "includesElement__electron_affinity": [1.461113, 2.128], "includesElement__vdw_radius_dreiding": [340.46], "includesElement__vdw_radius_bondi": [152.0], "includesElement__vdw_radius_rt": [158.0], "formula": ["O6Pt3Zn1"], "spacegroup": ["65"], "thermalConductivity": [3.12374], "icsd": ["35339"], "band_gap": [0.3047], "density": [10.98985], "density_atomic": [11.28181], "deprecated": [false], "efermi": [4.947143], "energy_above_hull": [0.0], "energy_per_atom": [-6.02277], "formation_energy_per_atom": [-1.104097], "homogeneous_poisson": [0.352], "is_gap_direct": [false], "is_magnetic": [false], "is_metal": [false], "is_stable": [true], "nelements": [3], "nsites": [10], "num_magnetic_sites": [0], "num_unique_magnetic_sites": [0], "theoretical": [false], "total_magnetization": [0.0], "total_magnetization_normalized_formula_units": [0.0], "total_magnetization_normalized_vol": [0.0], "uncorrected_energy_per_atom": [-20.77451], "universal_anisotropy": [2.418], "volume": [112.8181], "cbm": [5.0834], "e_electronic": [15.75867], "e_ionic": [2.841233], "e_total": [18.5999], "equilibrium_reaction_energy_per_atom": [-0.03948584], "n": [3.969719], "vbm": [4.7787]}