{"includesElement": ["", "Be", "Tb"], "includesElement___series_id": [4, 9], "includesElement__abundance_crust": [2.8, 1.2], "includesElement__atomic_number": [4, 65], "includesElement__atomic_radius": [105.0, 175.0], "includesElement__atomic_radius_rahm": [219.0, 276.0], "includesElement__atomic_volume": [5.0, 19.2], "includesElement__atomic_weight": [9.012183, 158.9254], "includesElement__covalent_radius_cordero": [96.0, 194.0], "includesElement__covalent_radius_pyykko": [102.0, 168.0], "includesElement__covalent_radius_pyykko_double": [90.0, 135.0], "includesElement__covalent_radius_pyykko_triple": [85.0], "includesElement__density": [1.85, 8.23], "includesElement__dipole_polarizability": [37.74, 170.0], "includesElement__dipole_polarizability_unc": [0.03, 20.0], "includesElement__discovery_year": [1798, 1843], "includesElement__electron_affinity": [-2.4, 1.165], "includesElement__electronegativity_allred-rochow": [0.0001874279, 0.0001009779], "includesElement__electronegativity_cottrell-sutton": [0.1382666, 0.130247], "includesElement__electronegativity_ghosh": [0.144986, 0.198863], "includesElement__electronegativity_gordy": [0.01911765, 0.01696429], "includesElement__electronegativity_mulliken": [3.461349, 3.5144], "includesElement__electronegativity_nagle": [0.3756148, 0.4014652], "includesElement__electronegativity_pauling": [1.57], "includesElement__electronegativity_sanderson": [0.1268473, 0.5163695], "includesElement__en_ghosh": [0.144986, 0.198863], "includesElement__en_pauling": [1.57], "includesElement__evaporation_heat": [309.0, 389.0], "includesElement__fusion_heat": [12.21], "includesElement__glawe_number": [77, 25], "includesElement__group_id": [2], "includesElement__heat_of_formation": [324.0, 388.7], "includesElement__is_radioactive": [false], "includesElement__lattice_constant": [2.29, 3.6], "includesElement__mendeleev_number": [75, 29], "includesElement__molar_heat_capacity": [16.443, 28.91], "includesElement__period": [2, 6], "includesElement__pettifor_number": [77, 26], "includesElement__specific_heat_capacity": [1.825, 0.182], "includesElement__vdw_radius": [153.0, 233.0], "includesElement__vdw_radius_alvarez": [198.0, 279.0], "includesElement__vdw_radius_mm3": [223.0, 270.0], "includesElement__vdw_radius_uff": [274.5, 345.1], "includesElement__abundance_sea": [5.6e-06, 1.4e-07], "includesElement__atomic_weight_uncertainty": [5e-07, 2e-05], "includesElement__c6_gb": [214.0, 2590.0], "includesElement__covalent_radius_bragg": [115.0], "includesElement__electronegativity_allen": [9.323], "includesElement__en_allen": [9.323], "includesElement__metallic_radius": [89.0], "includesElement__metallic_radius_c12": [112.0], "includesElement__thermal_conductivity": [201.0, 11.1], "includesElement__vdw_radius_batsanov": [190.0], "includesElement__c6": [227.0], "includesElement__is_monoisotopic": [true], "includesElement__vdw_radius_truhlar": [153.0], "formula": ["Be26Tb2"], "spacegroup": ["226"], "thermalConductivity": [13.0592], "icsd": ["108888"], "band_gap": [0.0], "density": [3.441774], "density_atomic": [9.514359], "deprecated": [false], "efermi": [4.077789], "energy_above_hull": [0.0], "energy_per_atom": [-3.988578], "formation_energy_per_atom": [-0.1849904], "is_gap_direct": [false], "is_magnetic": [false], "is_metal": [true], "is_stable": [true], "nelements": [2], "nsites": [28], "num_magnetic_sites": [0], "num_unique_magnetic_sites": [0], "theoretical": [false], "total_magnetization": [2e-07], "total_magnetization_normalized_formula_units": [1e-07], "total_magnetization_normalized_vol": [7.50745e-10], "uncorrected_energy_per_atom": [-6.460715], "volume": [266.402], "equilibrium_reaction_energy_per_atom": [-0.1849904]}