{"includesElement": ["", "Ca", "Ga"], "includesElement___series_id": [4, 7], "includesElement__abundance_crust": [41500.0, 19.0], "includesElement__atomic_number": [20, 31], "includesElement__atomic_radius": [180.0, 130.0], "includesElement__atomic_radius_rahm": [270.0, 233.0], "includesElement__atomic_volume": [29.9, 11.8], "includesElement__atomic_weight": [40.078, 69.723], "includesElement__covalent_radius_cordero": [176.0, 122.0], "includesElement__covalent_radius_pyykko": [171.0, 124.0], "includesElement__covalent_radius_pyykko_double": [147.0, 117.0], "includesElement__covalent_radius_pyykko_triple": [133.0, 121.0], "includesElement__density": [1.54, 5.91], "includesElement__dipole_polarizability": [160.8, 50.0], "includesElement__dipole_polarizability_unc": [4.0, 3.0], "includesElement__discovery_year": [1808, 1875], "includesElement__electron_affinity": [0.02455, 0.43], "includesElement__electronegativity_allred-rochow": [9.746589e-05, 0.0003251821], "includesElement__electronegativity_cottrell-sutton": [0.1290994, 0.2008048], "includesElement__electronegativity_ghosh": [0.1154119, 0.1723773], "includesElement__electronegativity_gordy": [0.01666667, 0.04032258], "includesElement__electronegativity_mulliken": [3.068853, 3.214651], "includesElement__electronegativity_nagle": [0.2316939, 0.3914868], "includesElement__electronegativity_pauling": [1.0, 1.81], "includesElement__electronegativity_sanderson": [0.1901577, 0.720541], "includesElement__en_ghosh": [0.1154119, 0.1723773], "includesElement__en_pauling": [1.0, 1.81], "includesElement__evaporation_heat": [153.6, 270.3], "includesElement__fusion_heat": [9.2, 5.59], "includesElement__glawe_number": [16, 79], "includesElement__group_id": [2, 13], "includesElement__heat_of_formation": [177.8, 271.96], "includesElement__is_radioactive": [false], "includesElement__lattice_constant": [5.58, 4.51], "includesElement__mendeleev_number": [7, 83], "includesElement__molar_heat_capacity": [25.929, 26.03], "includesElement__period": [4], "includesElement__pettifor_number": [16, 81], "includesElement__specific_heat_capacity": [0.647, 0.373], "includesElement__vdw_radius": [231.0, 187.0], "includesElement__vdw_radius_alvarez": [262.0, 232.0], "includesElement__vdw_radius_mm3": [281.0, 246.0], "includesElement__vdw_radius_uff": [339.9, 438.3], "includesElement__abundance_sea": [412.0, 3e-05], "includesElement__atomic_weight_uncertainty": [0.004, 0.001], "includesElement__c6_gb": [2230.0, 456.0], "includesElement__covalent_radius_bragg": [170.0], "includesElement__electronegativity_allen": [6.113, 10.39], "includesElement__en_allen": [6.113, 10.39], "includesElement__metallic_radius": [174.0, 125.0], "includesElement__metallic_radius_c12": [197.0, 140.0], "includesElement__vdw_radius_batsanov": [240.0, 210.0], "includesElement__c6": [2163.0, 498.0], "includesElement__vdw_radius_truhlar": [231.0], "includesElement__thermal_conductivity": [28.1], "includesElement__vdw_radius_dreiding": [439.0], "includesElement__vdw_radius_bondi": [187.0], "formula": ["Ca1Ga2"], "spacegroup": ["191"], "thermalConductivity": [5.45889], "icsd": ["58890"], "band_gap": [0.0], "density": [4.337844], "density_atomic": [22.90743], "deprecated": [false], "efermi": [3.125174], "energy_above_hull": [0.01698166], "energy_per_atom": [-10.55264], "formation_energy_per_atom": [-0.5780276], "homogeneous_poisson": [0.203], "is_gap_direct": [false], "is_magnetic": [false], "is_metal": [true], "is_stable": [false], "nelements": [2], "nsites": [3], "num_magnetic_sites": [0], "num_unique_magnetic_sites": [0], "theoretical": [false], "total_magnetization": [0.0], "total_magnetization_normalized_formula_units": [0.0], "total_magnetization_normalized_vol": [0.0], "uncorrected_energy_per_atom": [-10.55264], "universal_anisotropy": [4.625], "volume": [68.72229]}