{"includesElement": ["", "Hg", "Al", "S"], "includesElement___series_id": [8, 7, 1], "includesElement__abundance_crust": [0.085, 82300.0, 350.0], "includesElement__atomic_number": [80, 13, 16], "includesElement__atomic_radius": [150.0, 125.0, 100.0], "includesElement__atomic_radius_rahm": [229.0, 239.0, 214.0], "includesElement__atomic_volume": [14.8, 10.0, 15.5], "includesElement__atomic_weight": [200.592, 26.98154, 32.06], "includesElement__covalent_radius_cordero": [132.0, 121.0, 105.0], "includesElement__covalent_radius_pyykko": [133.0, 126.0, 103.0], "includesElement__covalent_radius_pyykko_double": [142.0, 113.0, 94.0], "includesElement__density": [13.5336, 2.7, 2.07], "includesElement__dipole_polarizability": [33.91, 57.8, 19.4], "includesElement__dipole_polarizability_unc": [0.34, 1.0, 0.1], "includesElement__electronegativity_allred-rochow": [0.0002459155, 0.0002204586, 0.0005137148], "includesElement__electronegativity_cottrell-sutton": [0.1808501, 0.1666667, 0.2300274], "includesElement__electronegativity_ghosh": [0.169, 0.150078, 0.23596], "includesElement__electronegativity_gordy": [0.03270677, 0.02777778, 0.05291262], "includesElement__electronegativity_mulliken": [5.218752, 3.209299, 6.218557], "includesElement__electronegativity_nagle": [0.7073231, 0.3730192, 0.6762644], "includesElement__electronegativity_pauling": [1.9, 1.61, 2.58], "includesElement__electronegativity_sanderson": [1.164789, 0.2360927, 0.6397251], "includesElement__en_ghosh": [0.169, 0.150078, 0.23596], "includesElement__en_pauling": [1.9, 1.61, 2.58], "includesElement__evaporation_heat": [58.5, 284.1, 10.5], "includesElement__fusion_heat": [2.295, 10.75, 1.23], "includesElement__glawe_number": [76, 78, 96], "includesElement__group_id": [12, 13, 16], "includesElement__heat_of_formation": [61.38, 330.9, 277.17], "includesElement__is_radioactive": [false], "includesElement__lattice_constant": [2.99, 4.05, 10.47], "includesElement__mendeleev_number": [79, 82, 100], "includesElement__molar_heat_capacity": [27.983, 24.2, 22.7], "includesElement__period": [6, 3], "includesElement__pettifor_number": [74, 80, 94], "includesElement__specific_heat_capacity": [0.14, 0.897, 0.708], "includesElement__vdw_radius": [223.0, 184.0, 180.0], "includesElement__vdw_radius_alvarez": [245.0, 225.0, 189.0], "includesElement__vdw_radius_mm3": [253.0, 236.0, 215.0], "includesElement__vdw_radius_uff": [270.5, 449.9, 403.5], "includesElement__abundance_sea": [3e-05, 0.002, 905.0], "includesElement__atomic_weight_uncertainty": [0.003, 7e-07], "includesElement__c6_gb": [268.0, 520.0, 140.0], "includesElement__electronegativity_allen": [10.44, 9.539, 15.31], "includesElement__en_allen": [10.44, 9.539, 15.31], "includesElement__metallic_radius": [139.0, 125.0, 104.0], "includesElement__metallic_radius_c12": [151.0, 143.0, 127.0], "includesElement__thermal_conductivity": [8.3, 237.0, 0.27], "includesElement__vdw_radius_batsanov": [205.0, 210.0, 180.0], "includesElement__covalent_radius_pyykko_triple": [111.0, 95.0], "includesElement__discovery_year": [1825], "includesElement__electron_affinity": [0.43283, 2.077104], "includesElement__covalent_radius_bragg": [135.0, 102.0], "includesElement__c6": [528.0, 134.0], "includesElement__is_monoisotopic": [true], "includesElement__vdw_radius_dreiding": [439.0, 403.0], "includesElement__vdw_radius_truhlar": [184.0], "includesElement__gas_basicity": [640.2], "includesElement__proton_affinity": [664.3], "includesElement__vdw_radius_bondi": [180.0], "includesElement__vdw_radius_rt": [181.0], "formula": ["Al2Hg1S4"], "spacegroup": ["82"], "thermalConductivity": [4.45629], "icsd": ["25635"], "band_gap": [2.0244], "density": [3.9911], "density_atomic": [22.75334], "deprecated": [false], "efermi": [2.151723], "energy_above_hull": [0.0], "energy_per_atom": [-4.584941], "formation_energy_per_atom": [-1.105761], "homogeneous_poisson": [0.253], "is_gap_direct": [false], "is_magnetic": [false], "is_metal": [false], "is_stable": [true], "nelements": [3], "nsites": [7], "num_magnetic_sites": [0], "num_unique_magnetic_sites": [0], "theoretical": [false], "total_magnetization": [0.0], "total_magnetization_normalized_formula_units": [0.0], "total_magnetization_normalized_vol": [0.0], "uncorrected_energy_per_atom": [-14.53964], "universal_anisotropy": [0.834], "volume": [159.2734], "cbm": [4.0578], "e_electronic": [5.703747], "e_ionic": [4.913628], "e_total": [10.61738], "equilibrium_reaction_energy_per_atom": [-0.0286214], "n": [2.388252], "vbm": [2.0334], "e_ij_max": [0.3171728]}