{"includesElement": ["", "N", "Ho"], "includesElement___series_id": [1, 9], "includesElement__abundance_crust": [19.0, 1.3], "includesElement__atomic_number": [7, 67], "includesElement__atomic_radius": [65.0, 175.0], "includesElement__atomic_radius_rahm": [179.0, 273.0], "includesElement__atomic_volume": [17.3, 18.7], "includesElement__atomic_weight": [14.007, 164.9303], "includesElement__covalent_radius_cordero": [71.0, 192.0], "includesElement__covalent_radius_pyykko": [71.0, 166.0], "includesElement__covalent_radius_pyykko_double": [60.0, 133.0], "includesElement__covalent_radius_pyykko_triple": [54.0], "includesElement__density": [0.001145, 8.8], "includesElement__dipole_polarizability": [7.4, 156.0], "includesElement__dipole_polarizability_unc": [0.2, 10.0], "includesElement__discovery_year": [1772, 1878], "includesElement__electron_affinity": [-1.4], "includesElement__electronegativity_allred-rochow": [0.000773656, 0.0001034258], "includesElement__electronegativity_cottrell-sutton": [0.2343706, 0.1310293], "includesElement__electronegativity_ghosh": [0.26493, 0.207795], "includesElement__electronegativity_gordy": [0.05492958, 0.01716867], "includesElement__electronegativity_mulliken": [6.567065, 3.01075], "includesElement__electronegativity_nagle": [0.8774979, 0.4367902], "includesElement__electronegativity_pauling": [3.04, 1.23], "includesElement__electronegativity_sanderson": [0.577482, 0.5434919], "includesElement__en_ghosh": [0.26493, 0.207795], "includesElement__en_pauling": [3.04, 1.23], "includesElement__glawe_number": [88, 23], "includesElement__group_id": [15], "includesElement__heat_of_formation": [472.44, 300.6], "includesElement__is_radioactive": [false], "includesElement__lattice_constant": [4.039, 3.58], "includesElement__mendeleev_number": [93, 33], "includesElement__molar_heat_capacity": [29.124, 27.15], "includesElement__period": [2, 6], "includesElement__pettifor_number": [100, 24], "includesElement__specific_heat_capacity": [1.04, 0.165], "includesElement__vdw_radius": [155.0, 230.0], "includesElement__vdw_radius_alvarez": [166.0, 281.0], "includesElement__vdw_radius_mm3": [193.0, 267.0], "includesElement__vdw_radius_uff": [366.0, 340.9], "includesElement__abundance_sea": [0.5, 2.2e-07], "includesElement__c6_gb": [25.7, 2280.0], "includesElement__covalent_radius_bragg": [65.0], "includesElement__electronegativity_allen": [18.13], "includesElement__en_allen": [18.13], "includesElement__metallic_radius_c12": [53.0], "includesElement__thermal_conductivity": [0.026], "includesElement__vdw_radius_batsanov": [160.0], "includesElement__c6": [24.2], "includesElement__vdw_radius_dreiding": [366.21], "includesElement__gas_basicity": [318.7], "includesElement__proton_affinity": [342.2], "includesElement__vdw_radius_bondi": [155.0], "includesElement__vdw_radius_rt": [164.0], "includesElement__evaporation_heat": [301.0], "includesElement__atomic_weight_uncertainty": [2e-05], "includesElement__is_monoisotopic": [true], "formula": ["Ho1N1"], "spacegroup": ["225"], "thermalConductivity": [36.4121], "icsd": ["169207"], "band_gap": [0.0875], "density": [10.38451], "density_atomic": [14.30649], "deprecated": [false], "efermi": [3.872319], "energy_above_hull": [0.0], "energy_per_atom": [-23.06471], "formation_energy_per_atom": [-2.059664], "homogeneous_poisson": [0.198], "is_gap_direct": [false], "is_magnetic": [false], "is_metal": [false], "is_stable": [true], "nelements": [2], "nsites": [2], "num_magnetic_sites": [0], "num_unique_magnetic_sites": [0], "theoretical": [false], "total_magnetization": [0.0], "total_magnetization_normalized_formula_units": [0.0], "total_magnetization_normalized_vol": [0.0], "uncorrected_energy_per_atom": [-23.06471], "universal_anisotropy": [0.0], "volume": [28.61298], "cbm": [3.9413], "equilibrium_reaction_energy_per_atom": [-2.059664], "vbm": [3.8538]}