{"includesElement": ["", "Ir", "Dy"], "includesElement___series_id": [8, 9], "includesElement__abundance_crust": [0.001, 5.2], "includesElement__atomic_number": [77, 66], "includesElement__atomic_radius": [135.0, 175.0], "includesElement__atomic_radius_rahm": [240.0, 275.0], "includesElement__atomic_volume": [8.54, 19.0], "includesElement__atomic_weight": [192.217, 162.5], "includesElement__covalent_radius_cordero": [141.0, 192.0], "includesElement__covalent_radius_pyykko": [122.0, 167.0], "includesElement__covalent_radius_pyykko_double": [115.0, 133.0], "includesElement__covalent_radius_pyykko_triple": [107.0], "includesElement__density": [22.5622, 8.55], "includesElement__dipole_polarizability": [54.0, 163.0], "includesElement__dipole_polarizability_unc": [7.0, 15.0], "includesElement__discovery_year": [1804, 1886], "includesElement__electron_affinity": [1.5638, 0.352], "includesElement__electronegativity_allred-rochow": [0.0002620263, 0.0001021908], "includesElement__electronegativity_cottrell-sutton": [0.1787938, 0.1306364], "includesElement__electronegativity_ghosh": [0.25106, 0.20333], "includesElement__electronegativity_gordy": [0.03196721, 0.01706587], "includesElement__electronegativity_mulliken": [5.26541, 3.145525], "includesElement__electronegativity_nagle": [0.5503212, 0.4191131], "includesElement__electronegativity_pauling": [2.2, 1.22], "includesElement__electronegativity_sanderson": [1.475998, 0.5297338], "includesElement__en_ghosh": [0.25106, 0.20333], "includesElement__en_pauling": [2.2, 1.22], "includesElement__evaporation_heat": [604.0, 291.0], "includesElement__fusion_heat": [27.61], "includesElement__glawe_number": [62, 24], "includesElement__group_id": [9], "includesElement__heat_of_formation": [669.0, 290.4], "includesElement__is_radioactive": [false], "includesElement__lattice_constant": [3.84, 3.59], "includesElement__mendeleev_number": [65, 31], "includesElement__molar_heat_capacity": [25.1, 28.16], "includesElement__period": [6], "includesElement__pettifor_number": [65, 25], "includesElement__specific_heat_capacity": [0.131, 0.173], "includesElement__vdw_radius": [213.0, 231.0], "includesElement__vdw_radius_alvarez": [241.0, 287.0], "includesElement__vdw_radius_mm3": [236.0, 290.0], "includesElement__vdw_radius_uff": [284.0, 342.8], "includesElement__atomic_weight_uncertainty": [0.003, 0.001], "includesElement__c6_gb": [522.0, 2430.0], "includesElement__electronegativity_allen": [9.96], "includesElement__en_allen": [9.96], "includesElement__metallic_radius": [127.0], "includesElement__metallic_radius_c12": [136.0], "includesElement__thermal_conductivity": [147.0, 10.7], "includesElement__vdw_radius_batsanov": [200.0], "includesElement__abundance_sea": [9.1e-07], "formula": ["Dy1Ir3"], "spacegroup": ["221"], "thermalConductivity": [10.9919], "icsd": ["103212"], "band_gap": [0.0], "density": [18.37092], "density_atomic": [16.70288], "deprecated": [false], "efermi": [7.542883], "energy_above_hull": [0.1842253], "energy_per_atom": [-8.21754], "formation_energy_per_atom": [-0.4341201], "homogeneous_poisson": [0.303], "is_gap_direct": [false], "is_magnetic": [false], "is_metal": [true], "is_stable": [false], "nelements": [2], "nsites": [4], "num_magnetic_sites": [0], "num_unique_magnetic_sites": [0], "theoretical": [false], "total_magnetization": [0.0010398], "total_magnetization_normalized_formula_units": [0.0010398], "total_magnetization_normalized_vol": [1.556318e-05], "uncorrected_energy_per_atom": [-8.21754], "universal_anisotropy": [1.157], "volume": [66.81152]}