{"includesElement": ["", "Ca", "H"], "includesElement___series_id": [4, 1], "includesElement__abundance_crust": [41500.0, 1400.0], "includesElement__atomic_number": [20, 1], "includesElement__atomic_radius": [180.0, 25.0], "includesElement__atomic_radius_rahm": [270.0, 154.0], "includesElement__atomic_volume": [29.9, 14.1], "includesElement__atomic_weight": [40.078, 1.008], "includesElement__covalent_radius_cordero": [176.0, 31.0], "includesElement__covalent_radius_pyykko": [171.0, 32.0], "includesElement__covalent_radius_pyykko_double": [147.0], "includesElement__covalent_radius_pyykko_triple": [133.0], "includesElement__density": [1.54, 8.2e-05], "includesElement__dipole_polarizability": [160.8, 4.50711], "includesElement__dipole_polarizability_unc": [4.0, 3e-05], "includesElement__discovery_year": [1808, 1766], "includesElement__electron_affinity": [0.02455, 0.754195], "includesElement__electronegativity_allred-rochow": [9.746589e-05, 0.0009765625], "includesElement__electronegativity_cottrell-sutton": [0.1290994, 0.1767767], "includesElement__electronegativity_ghosh": [0.1154119, 0.2638], "includesElement__electronegativity_gordy": [0.01666667, 0.03125], "includesElement__electronegativity_mulliken": [3.068853, 7.176315], "includesElement__electronegativity_nagle": [0.2316939, 0.6053882], "includesElement__electronegativity_pauling": [1.0, 2.2], "includesElement__electronegativity_sanderson": [0.1901577, 2.187771], "includesElement__en_ghosh": [0.1154119, 0.2638], "includesElement__en_pauling": [1.0, 2.2], "includesElement__evaporation_heat": [153.6, 0.904], "includesElement__fusion_heat": [9.2, 0.117], "includesElement__glawe_number": [16, 103], "includesElement__group_id": [2, 1], "includesElement__heat_of_formation": [177.8, 217.998], "includesElement__is_radioactive": [false], "includesElement__lattice_constant": [5.58, 3.75], "includesElement__mendeleev_number": [7, 105], "includesElement__molar_heat_capacity": [25.929, 28.836], "includesElement__period": [4, 1], "includesElement__pettifor_number": [16, 103], "includesElement__specific_heat_capacity": [0.647, 14.304], "includesElement__vdw_radius": [231.0, 110.0], "includesElement__vdw_radius_alvarez": [262.0, 120.0], "includesElement__vdw_radius_mm3": [281.0, 162.0], "includesElement__vdw_radius_uff": [339.9, 288.6], "includesElement__abundance_sea": [412.0, 108000.0], "includesElement__atomic_weight_uncertainty": [0.004], "includesElement__c6_gb": [2230.0, 6.51], "includesElement__covalent_radius_bragg": [170.0], "includesElement__electronegativity_allen": [6.113, 13.61], "includesElement__en_allen": [6.113, 13.61], "includesElement__metallic_radius": [174.0], "includesElement__metallic_radius_c12": [197.0, 78.0], "includesElement__vdw_radius_batsanov": [240.0], "includesElement__c6": [2163.0, 6.499027], "includesElement__vdw_radius_truhlar": [231.0], "includesElement__thermal_conductivity": [0.1815], "includesElement__vdw_radius_dreiding": [319.5], "includesElement__vdw_radius_bondi": [120.0], "includesElement__vdw_radius_rt": [110.0], "formula": ["Ca4H8"], "spacegroup": ["62"], "thermalConductivity": [4.00777], "icsd": ["155987"], "band_gap": [3.0275], "density": [1.960743], "density_atomic": [11.883], "deprecated": [false], "efermi": [0.8916838], "energy_above_hull": [0.0], "energy_per_atom": [-5.316388], "formation_energy_per_atom": [-0.6668815], "homogeneous_poisson": [0.218], "is_gap_direct": [false], "is_magnetic": [false], "is_metal": [false], "is_stable": [true], "nelements": [2], "nsites": [12], "num_magnetic_sites": [0], "num_unique_magnetic_sites": [0], "theoretical": [false], "total_magnetization": [0.0], "total_magnetization_normalized_formula_units": [0.0], "total_magnetization_normalized_vol": [0.0], "uncorrected_energy_per_atom": [-5.316388], "universal_anisotropy": [0.078], "volume": [142.596], "cbm": [3.7994], "e_electronic": [4.452752], "e_ionic": [7.131021], "e_total": [11.58377], "equilibrium_reaction_energy_per_atom": [-0.6668815], "n": [2.110155], "vbm": [0.7719]}