{"includesElement": ["", "Zn", "Cu"], "includesElement___series_id": [8], "includesElement__abundance_crust": [70.0, 60.0], "includesElement__atomic_number": [30, 29], "includesElement__atomic_radius": [135.0], "includesElement__atomic_radius_rahm": [222.0, 217.0], "includesElement__atomic_volume": [9.2, 7.1], "includesElement__atomic_weight": [65.38, 63.546], "includesElement__covalent_radius_cordero": [122.0, 132.0], "includesElement__covalent_radius_pyykko": [118.0, 112.0], "includesElement__covalent_radius_pyykko_double": [120.0, 115.0], "includesElement__density": [7.134, 8.96], "includesElement__dipole_polarizability": [38.67, 46.5], "includesElement__dipole_polarizability_unc": [0.3, 0.5], "includesElement__electronegativity_allred-rochow": [0.0003124102, 0.0002949617], "includesElement__electronegativity_cottrell-sutton": [0.1920011, 0.1817573], "includesElement__electronegativity_ghosh": [0.1551518, 0.1511716], "includesElement__electronegativity_gordy": [0.03686441, 0.03303571], "includesElement__electronegativity_mulliken": [4.6971, 4.48069], "includesElement__electronegativity_nagle": [0.6770213, 0.6184623], "includesElement__electronegativity_pauling": [1.65, 1.9], "includesElement__electronegativity_sanderson": [0.8100877, 0.9175542], "includesElement__en_ghosh": [0.1551518, 0.1511716], "includesElement__en_pauling": [1.65, 1.9], "includesElement__evaporation_heat": [114.8, 304.6], "includesElement__fusion_heat": [7.28, 13.01], "includesElement__glawe_number": [74, 68], "includesElement__group_id": [12, 11], "includesElement__heat_of_formation": [130.4, 337.4], "includesElement__is_radioactive": [false], "includesElement__lattice_constant": [2.66, 3.61], "includesElement__mendeleev_number": [77, 71], "includesElement__molar_heat_capacity": [25.39, 24.44], "includesElement__period": [4], "includesElement__pettifor_number": [76, 72], "includesElement__specific_heat_capacity": [0.388, 0.385], "includesElement__vdw_radius": [201.0, 196.0], "includesElement__vdw_radius_alvarez": [239.0, 238.0], "includesElement__vdw_radius_mm3": [229.0, 226.0], "includesElement__vdw_radius_uff": [276.3, 349.5], "includesElement__abundance_sea": [0.0049, 0.00025], "includesElement__atomic_weight_uncertainty": [0.02, 0.003], "includesElement__c6_gb": [276.0, 264.0], "includesElement__covalent_radius_bragg": [132.0, 137.0], "includesElement__electronegativity_allen": [9.395, 10.96], "includesElement__en_allen": [9.395, 10.96], "includesElement__metallic_radius": [121.0, 118.0], "includesElement__metallic_radius_c12": [134.0, 128.0], "includesElement__thermal_conductivity": [116.0, 401.0], "includesElement__vdw_radius_batsanov": [210.0, 200.0], "includesElement__c6": [284.0, 253.0], "includesElement__gas_basicity": [586.0, 632.4], "includesElement__proton_affinity": [608.6, 655.3], "includesElement__covalent_radius_pyykko_triple": [120.0], "includesElement__electron_affinity": [1.235], "formula": ["Cu1Zn1"], "spacegroup": ["221"], "thermalConductivity": [3.60069], "icsd": ["103152"], "band_gap": [0.0], "density": [8.595905], "density_atomic": [12.45563], "deprecated": [false], "efermi": [6.866187], "energy_above_hull": [0.0], "energy_per_atom": [-2.77023], "formation_energy_per_atom": [-0.09075503], "homogeneous_poisson": [0.325], "is_gap_direct": [false], "is_magnetic": [false], "is_metal": [true], "is_stable": [true], "nelements": [2], "nsites": [2], "num_magnetic_sites": [0], "num_unique_magnetic_sites": [0], "theoretical": [false], "total_magnetization": [0.0], "total_magnetization_normalized_formula_units": [0.0], "total_magnetization_normalized_vol": [0.0], "uncorrected_energy_per_atom": [-9.975624], "universal_anisotropy": [3.573], "volume": [24.91126], "equilibrium_reaction_energy_per_atom": [-0.002636062]}