{"includesElement": ["", "Sb", "Pt"], "includesElement___series_id": [5, 8], "includesElement__abundance_crust": [0.2, 0.005], "includesElement__atomic_number": [51, 78], "includesElement__atomic_radius": [145.0, 135.0], "includesElement__atomic_radius_rahm": [246.0, 230.0], "includesElement__atomic_volume": [18.4, 9.1], "includesElement__atomic_weight": [121.76, 195.084], "includesElement__covalent_radius_cordero": [139.0, 136.0], "includesElement__covalent_radius_pyykko": [140.0, 123.0], "includesElement__covalent_radius_pyykko_double": [133.0, 112.0], "includesElement__covalent_radius_pyykko_triple": [127.0, 110.0], "includesElement__density": [6.68, 21.5], "includesElement__dipole_polarizability": [43.0, 48.0], "includesElement__dipole_polarizability_unc": [2.0, 4.0], "includesElement__electron_affinity": [1.046, 2.128], "includesElement__electronegativity_allred-rochow": [0.0003214286, 0.0002346487], "includesElement__electronegativity_cottrell-sutton": [0.212132, 0.1698876], "includesElement__electronegativity_ghosh": [0.1918774, 0.25691], "includesElement__electronegativity_gordy": [0.045, 0.02886179], "includesElement__electronegativity_mulliken": [4.827195, 5.543415], "includesElement__electronegativity_nagle": [0.4880907, 0.5928156], "includesElement__electronegativity_pauling": [2.05, 2.2], "includesElement__electronegativity_sanderson": [0.7762722, 1.45101], "includesElement__en_ghosh": [0.1918774, 0.25691], "includesElement__en_pauling": [2.05, 2.2], "includesElement__evaporation_heat": [195.2, 470.0], "includesElement__fusion_heat": [20.08, 21.76], "includesElement__glawe_number": [91, 64], "includesElement__group_id": [15, 10], "includesElement__heat_of_formation": [264.4, 565.7], "includesElement__is_radioactive": [false], "includesElement__lattice_constant": [4.51, 3.92], "includesElement__mendeleev_number": [96, 69], "includesElement__molar_heat_capacity": [25.23, 25.86], "includesElement__period": [5, 6], "includesElement__pettifor_number": [88, 68], "includesElement__specific_heat_capacity": [0.207, 0.133], "includesElement__vdw_radius": [206.0, 213.0], "includesElement__vdw_radius_alvarez": [247.0, 229.0], "includesElement__vdw_radius_mm3": [252.0, 239.0], "includesElement__vdw_radius_uff": [442.0, 275.4], "includesElement__abundance_sea": [0.00024], "includesElement__atomic_weight_uncertainty": [0.001, 0.009], "includesElement__c6_gb": [504.0, 470.0], "includesElement__covalent_radius_bragg": [140.0], "includesElement__electronegativity_allen": [11.74, 10.16], "includesElement__en_allen": [11.74, 10.16], "includesElement__metallic_radius": [139.0, 130.0], "includesElement__metallic_radius_c12": [166.0, 139.0], "includesElement__thermal_conductivity": [24.43, 71.6], "includesElement__vdw_radius_batsanov": [220.0, 205.0], "includesElement__c6": [492.0], "includesElement__vdw_radius_dreiding": [435.0], "includesElement__vdw_radius_truhlar": [206.0], "includesElement__discovery_year": [1735], "formula": ["Pt7Sb1"], "spacegroup": ["225"], "thermalConductivity": [0.813297], "icsd": ["54340"], "band_gap": [0.0], "density": [19.36783], "density_atomic": [15.94009], "deprecated": [false], "efermi": [8.159559], "energy_above_hull": [0.009764303], "energy_per_atom": [-48.37955], "formation_energy_per_atom": [-0.1145051], "homogeneous_poisson": [0.25], "is_gap_direct": [false], "is_magnetic": [false], "is_metal": [true], "is_stable": [false], "nelements": [2], "nsites": [8], "num_magnetic_sites": [0], "num_unique_magnetic_sites": [0], "theoretical": [false], "total_magnetization": [3e-07], "total_magnetization_normalized_formula_units": [3e-07], "total_magnetization_normalized_vol": [2.352559e-09], "uncorrected_energy_per_atom": [-48.37955], "universal_anisotropy": [101279.5], "volume": [127.5207]}