{"includesElement": ["", "Bi", "K"], "includesElement___series_id": [7, 3], "includesElement__abundance_crust": [0.0085, 20900.0], "includesElement__atomic_number": [83, 19], "includesElement__atomic_radius": [160.0, 220.0], "includesElement__atomic_radius_rahm": [250.0, 234.0], "includesElement__atomic_volume": [21.3, 45.3], "includesElement__atomic_weight": [208.9804, 39.0983], "includesElement__covalent_radius_cordero": [148.0, 203.0], "includesElement__covalent_radius_pyykko": [151.0, 196.0], "includesElement__covalent_radius_pyykko_double": [141.0, 193.0], "includesElement__covalent_radius_pyykko_triple": [135.0], "includesElement__density": [9.79, 0.89], "includesElement__dipole_polarizability": [48.0, 289.7], "includesElement__dipole_polarizability_unc": [4.0, 0.3], "includesElement__electron_affinity": [0.942362, 0.50147], "includesElement__electronegativity_allred-rochow": [0.0002763037, 5.726781e-05], "includesElement__electronegativity_cottrell-sutton": [0.2042593, 0.1059457], "includesElement__electronegativity_ghosh": [0.182377, 0.0981896], "includesElement__electronegativity_gordy": [0.04172185, 0.01122449], "includesElement__electronegativity_mulliken": [4.113939, 2.421067], "includesElement__electronegativity_nagle": [0.470518, 0.1511299], "includesElement__electronegativity_pauling": [1.9, 0.82], "includesElement__electronegativity_sanderson": [0.8136501, 0.1218383], "includesElement__en_ghosh": [0.182377, 0.0981896], "includesElement__en_pauling": [1.9, 0.82], "includesElement__evaporation_heat": [172.0, 2.33], "includesElement__fusion_heat": [11.0, 102.5], "includesElement__glawe_number": [92, 10], "includesElement__group_id": [15, 1], "includesElement__heat_of_formation": [209.6, 89.0], "includesElement__is_radioactive": [false], "includesElement__lattice_constant": [4.75, 5.23], "includesElement__mendeleev_number": [97, 3], "includesElement__molar_heat_capacity": [25.52, 29.6], "includesElement__period": [6, 4], "includesElement__pettifor_number": [87, 10], "includesElement__specific_heat_capacity": [0.122, 0.757], "includesElement__vdw_radius": [207.0, 275.0], "includesElement__vdw_radius_alvarez": [254.0, 273.0], "includesElement__vdw_radius_mm3": [266.0, 309.0], "includesElement__vdw_radius_uff": [437.0, 381.2], "includesElement__abundance_sea": [2e-05, 399.0], "includesElement__atomic_weight_uncertainty": [1e-05, 0.0001], "includesElement__c6_gb": [513.0, 3910.0], "includesElement__covalent_radius_bragg": [148.0, 207.0], "includesElement__electronegativity_allen": [11.9, 4.34], "includesElement__en_allen": [11.9, 4.34], "includesElement__metallic_radius": [151.0, 203.0], "includesElement__metallic_radius_c12": [178.0, 235.0], "includesElement__thermal_conductivity": [7.9, 79.0], "includesElement__vdw_radius_batsanov": [230.0, 280.0], "includesElement__is_monoisotopic": [true], "includesElement__vdw_radius_truhlar": [207.0], "includesElement__discovery_year": [1807], "includesElement__c6": [3923.0], "includesElement__vdw_radius_bondi": [275.0], "formula": ["Bi1K3"], "spacegroup": ["225"], "thermalConductivity": [0.552867], "icsd": ["58793"], "band_gap": [0.1286], "density": [3.378498], "density_atomic": [40.09126], "deprecated": [false], "efermi": [1.083728], "energy_above_hull": [0.01435965], "energy_per_atom": [-2.156061], "formation_energy_per_atom": [-0.3474117], "homogeneous_poisson": [0.283], "is_gap_direct": [true], "is_magnetic": [false], "is_metal": [false], "is_stable": [false], "nelements": [2], "nsites": [4], "num_magnetic_sites": [0], "num_unique_magnetic_sites": [0], "theoretical": [false], "total_magnetization": [0.0], "total_magnetization_normalized_formula_units": [0.0], "total_magnetization_normalized_vol": [0.0], "uncorrected_energy_per_atom": [-19.62613], "universal_anisotropy": [5.429], "volume": [160.365], "cbm": [1.1349], "vbm": [1.0063]}