{"includesElement": ["", "Rh", "Ho"], "includesElement___series_id": [8, 9], "includesElement__abundance_crust": [0.001, 1.3], "includesElement__atomic_number": [45, 67], "includesElement__atomic_radius": [135.0, 175.0], "includesElement__atomic_radius_rahm": [233.0, 273.0], "includesElement__atomic_volume": [8.3, 18.7], "includesElement__atomic_weight": [102.9055, 164.9303], "includesElement__covalent_radius_cordero": [142.0, 192.0], "includesElement__covalent_radius_pyykko": [125.0, 166.0], "includesElement__covalent_radius_pyykko_double": [110.0, 133.0], "includesElement__covalent_radius_pyykko_triple": [106.0], "includesElement__density": [12.4, 8.8], "includesElement__dipole_polarizability": [66.0, 156.0], "includesElement__dipole_polarizability_unc": [10.0], "includesElement__discovery_year": [1803, 1878], "includesElement__electron_affinity": [1.137], "includesElement__electronegativity_allred-rochow": [0.0002176, 0.0001034258], "includesElement__electronegativity_cottrell-sutton": [0.1649242, 0.1310293], "includesElement__electronegativity_ghosh": [0.1408379, 0.207795], "includesElement__electronegativity_gordy": [0.0272, 0.01716867], "includesElement__electronegativity_mulliken": [4.29795, 3.01075], "includesElement__electronegativity_nagle": [0.5147142, 0.4367902], "includesElement__electronegativity_pauling": [2.28, 1.23], "includesElement__electronegativity_sanderson": [0.9761915, 0.5434919], "includesElement__en_ghosh": [0.1408379, 0.207795], "includesElement__en_pauling": [2.28, 1.23], "includesElement__evaporation_heat": [494.0, 301.0], "includesElement__fusion_heat": [21.8], "includesElement__glawe_number": [63, 23], "includesElement__group_id": [9], "includesElement__heat_of_formation": [556.0, 300.6], "includesElement__is_radioactive": [false], "includesElement__lattice_constant": [3.8, 3.58], "includesElement__mendeleev_number": [64, 33], "includesElement__molar_heat_capacity": [24.98, 27.15], "includesElement__period": [5, 6], "includesElement__pettifor_number": [66, 24], "includesElement__specific_heat_capacity": [0.243, 0.165], "includesElement__vdw_radius": [210.0, 230.0], "includesElement__vdw_radius_alvarez": [244.0, 281.0], "includesElement__vdw_radius_mm3": [234.0, 267.0], "includesElement__vdw_radius_uff": [292.9, 340.9], "includesElement__atomic_weight_uncertainty": [2e-05], "includesElement__c6_gb": [708.0, 2280.0], "includesElement__electronegativity_allen": [9.259], "includesElement__en_allen": [9.259], "includesElement__metallic_radius": [125.0], "includesElement__metallic_radius_c12": [134.0], "includesElement__thermal_conductivity": [150.0], "includesElement__vdw_radius_batsanov": [200.0], "includesElement__is_monoisotopic": [true], "includesElement__gas_basicity": [745.4], "includesElement__proton_affinity": [768.0], "includesElement__abundance_sea": [2.2e-07], "formula": ["Ho1Rh1"], "spacegroup": ["221"], "thermalConductivity": [7.32271], "icsd": ["104445"], "band_gap": [0.0], "density": [11.4516], "density_atomic": [19.41877], "deprecated": [false], "efermi": [4.602326], "energy_above_hull": [0.0], "energy_per_atom": [-6.888482], "formation_energy_per_atom": [-0.9074885], "homogeneous_poisson": [0.338], "is_gap_direct": [false], "is_magnetic": [false], "is_metal": [true], "is_stable": [true], "nelements": [2], "nsites": [2], "num_magnetic_sites": [0], "num_unique_magnetic_sites": [0], "theoretical": [false], "total_magnetization": [2.28e-05], "total_magnetization_normalized_formula_units": [2.28e-05], "total_magnetization_normalized_vol": [5.870608e-07], "uncorrected_energy_per_atom": [-29.48962], "universal_anisotropy": [0.013], "volume": [38.83754], "equilibrium_reaction_energy_per_atom": [-0.1412187]}