{"includesElement": ["", "Ba", "Zn"], "includesElement___series_id": [4, 8], "includesElement__abundance_crust": [425.0, 70.0], "includesElement__atomic_number": [56, 30], "includesElement__atomic_radius": [215.0, 135.0], "includesElement__atomic_radius_rahm": [293.0, 222.0], "includesElement__atomic_volume": [39.0, 9.2], "includesElement__atomic_weight": [137.327, 65.38], "includesElement__covalent_radius_cordero": [215.0, 122.0], "includesElement__covalent_radius_pyykko": [196.0, 118.0], "includesElement__covalent_radius_pyykko_double": [161.0, 120.0], "includesElement__covalent_radius_pyykko_triple": [149.0], "includesElement__density": [3.62, 7.134], "includesElement__dipole_polarizability": [272.0, 38.67], "includesElement__dipole_polarizability_unc": [10.0, 0.3], "includesElement__discovery_year": [1808], "includesElement__electron_affinity": [0.14462], "includesElement__electronegativity_allred-rochow": [7.418784e-05, 0.0003124102], "includesElement__electronegativity_cottrell-sutton": [0.1205853, 0.1920011], "includesElement__electronegativity_ghosh": [0.1586786, 0.1551518], "includesElement__electronegativity_gordy": [0.01454082, 0.03686441], "includesElement__electronegativity_mulliken": [2.678142, 4.6971], "includesElement__electronegativity_nagle": [0.1944556, 0.6770213], "includesElement__electronegativity_pauling": [0.89, 1.65], "includesElement__electronegativity_sanderson": [0.3032951, 0.8100877], "includesElement__en_ghosh": [0.1586786, 0.1551518], "includesElement__en_pauling": [0.89, 1.65], "includesElement__evaporation_heat": [142.0, 114.8], "includesElement__fusion_heat": [7.66, 7.28], "includesElement__glawe_number": [14, 74], "includesElement__group_id": [2, 12], "includesElement__heat_of_formation": [179.1, 130.4], "includesElement__is_radioactive": [false], "includesElement__lattice_constant": [5.02, 2.66], "includesElement__mendeleev_number": [9, 77], "includesElement__molar_heat_capacity": [28.07, 25.39], "includesElement__period": [6, 4], "includesElement__pettifor_number": [14, 76], "includesElement__specific_heat_capacity": [0.204, 0.388], "includesElement__vdw_radius": [268.0, 201.0], "includesElement__vdw_radius_alvarez": [303.0, 239.0], "includesElement__vdw_radius_mm3": [307.0, 229.0], "includesElement__vdw_radius_uff": [370.3, 276.3], "includesElement__abundance_sea": [0.013, 0.0049], "includesElement__atomic_weight_uncertainty": [0.007, 0.02], "includesElement__c6_gb": [5540.0, 276.0], "includesElement__covalent_radius_bragg": [210.0, 132.0], "includesElement__electronegativity_allen": [5.211, 9.395], "includesElement__en_allen": [5.211, 9.395], "includesElement__metallic_radius": [198.0, 121.0], "includesElement__metallic_radius_c12": [222.0, 134.0], "includesElement__vdw_radius_batsanov": [270.0, 210.0], "includesElement__vdw_radius_truhlar": [268.0], "includesElement__thermal_conductivity": [116.0], "includesElement__c6": [284.0], "includesElement__gas_basicity": [586.0], "includesElement__proton_affinity": [608.6], "formula": ["Ba1Zn1"], "spacegroup": ["221"], "thermalConductivity": [2.81468], "icsd": ["58682"], "band_gap": [0.0], "density": [4.962201], "density_atomic": [33.92155], "deprecated": [false], "efermi": [2.037512], "energy_above_hull": [0.003523577], "energy_per_atom": [-1.756738], "formation_energy_per_atom": [-0.1673788], "homogeneous_poisson": [0.212], "is_gap_direct": [false], "is_magnetic": [false], "is_metal": [true], "is_stable": [false], "nelements": [2], "nsites": [2], "num_magnetic_sites": [0], "num_unique_magnetic_sites": [0], "theoretical": [false], "total_magnetization": [5e-07], "total_magnetization_normalized_formula_units": [5e-07], "total_magnetization_normalized_vol": [7.369947e-09], "uncorrected_energy_per_atom": [-17.80892], "universal_anisotropy": [0.084], "volume": [67.8431]}