{"includesElement": ["", "S", "La"], "includesElement___series_id": [1, 9], "includesElement__abundance_crust": [350.0, 39.0], "includesElement__atomic_number": [16, 57], "includesElement__atomic_radius": [100.0, 195.0], "includesElement__atomic_radius_rahm": [214.0, 284.0], "includesElement__atomic_volume": [15.5, 22.5], "includesElement__atomic_weight": [32.06, 138.9055], "includesElement__covalent_radius_cordero": [105.0, 207.0], "includesElement__covalent_radius_pyykko": [103.0, 180.0], "includesElement__covalent_radius_pyykko_double": [94.0, 139.0], "includesElement__covalent_radius_pyykko_triple": [95.0, 139.0], "includesElement__density": [2.07, 6.15], "includesElement__dipole_polarizability": [19.4, 215.0], "includesElement__dipole_polarizability_unc": [0.1, 20.0], "includesElement__electron_affinity": [2.077104, 0.47], "includesElement__electronegativity_allred-rochow": [0.0005137148, 9.259259e-05], "includesElement__electronegativity_cottrell-sutton": [0.2300274, 0.1290994], "includesElement__electronegativity_ghosh": [0.23596, 0.163142], "includesElement__electronegativity_gordy": [0.05291262, 0.01666667], "includesElement__electronegativity_mulliken": [6.218557, 3.02345], "includesElement__electronegativity_nagle": [0.6762644, 0.240747], "includesElement__electronegativity_pauling": [2.58, 1.1], "includesElement__electronegativity_sanderson": [0.6397251, 0.3946505], "includesElement__en_ghosh": [0.23596, 0.163142], "includesElement__en_pauling": [2.58, 1.1], "includesElement__evaporation_heat": [10.5, 402.0], "includesElement__fusion_heat": [1.23, 8.5], "includesElement__glawe_number": [96, 32], "includesElement__group_id": [16, 3], "includesElement__heat_of_formation": [277.17, 431.0], "includesElement__is_radioactive": [false], "includesElement__lattice_constant": [10.47, 3.75], "includesElement__mendeleev_number": [100, 13], "includesElement__molar_heat_capacity": [22.7, 27.11], "includesElement__period": [3, 6], "includesElement__pettifor_number": [94, 33], "includesElement__specific_heat_capacity": [0.708, 0.195], "includesElement__vdw_radius": [180.0, 243.0], "includesElement__vdw_radius_alvarez": [189.0, 298.0], "includesElement__vdw_radius_mm3": [215.0, 278.0], "includesElement__vdw_radius_uff": [403.5, 352.2], "includesElement__abundance_sea": [905.0, 3.4e-06], "includesElement__c6_gb": [140.0, 3730.0], "includesElement__covalent_radius_bragg": [102.0], "includesElement__electronegativity_allen": [15.31], "includesElement__en_allen": [15.31], "includesElement__metallic_radius": [104.0, 169.0], "includesElement__metallic_radius_c12": [127.0, 187.0], "includesElement__thermal_conductivity": [0.27, 13.4], "includesElement__vdw_radius_batsanov": [180.0, 250.0], "includesElement__c6": [134.0], "includesElement__vdw_radius_dreiding": [403.0], "includesElement__gas_basicity": [640.2, 991.9], "includesElement__proton_affinity": [664.3, 1013.0], "includesElement__vdw_radius_bondi": [180.0], "includesElement__vdw_radius_rt": [181.0], "includesElement__discovery_year": [1839], "includesElement__atomic_weight_uncertainty": [7e-05], "formula": ["La1S1"], "spacegroup": ["225"], "thermalConductivity": [7.03168], "icsd": ["183942"], "band_gap": [0.0], "density": [5.576869], "density_atomic": [25.45363], "deprecated": [false], "efermi": [8.96064], "energy_above_hull": [0.0], "energy_per_atom": [-21.31982], "formation_energy_per_atom": [-2.429931], "homogeneous_poisson": [0.289], "is_gap_direct": [false], "is_magnetic": [false], "is_metal": [true], "is_stable": [true], "nelements": [2], "nsites": [2], "num_magnetic_sites": [0], "num_unique_magnetic_sites": [0], "theoretical": [false], "total_magnetization": [3.5e-06], "total_magnetization_normalized_formula_units": [3.5e-06], "total_magnetization_normalized_vol": [6.875246e-08], "uncorrected_energy_per_atom": [-21.31982], "universal_anisotropy": [1.772], "volume": [50.90727], "equilibrium_reaction_energy_per_atom": [-0.3401574]}