{"includesElement": ["", "O", "Ru"], "includesElement___series_id": [1, 8], "includesElement__abundance_crust": [461000.0, 0.001], "includesElement__atomic_number": [8, 44], "includesElement__atomic_radius": [60.0, 130.0], "includesElement__atomic_radius_rahm": [171.0, 237.0], "includesElement__atomic_volume": [14.0, 8.3], "includesElement__atomic_weight": [15.999, 101.07], "includesElement__covalent_radius_cordero": [66.0, 146.0], "includesElement__covalent_radius_pyykko": [63.0, 125.0], "includesElement__covalent_radius_pyykko_double": [57.0, 114.0], "includesElement__covalent_radius_pyykko_triple": [53.0, 103.0], "includesElement__density": [0.001308, 12.1], "includesElement__dipole_polarizability": [5.3, 72.0], "includesElement__dipole_polarizability_unc": [0.2, 10.0], "includesElement__discovery_year": [1774, 1844], "includesElement__electron_affinity": [1.461113, 1.05], "includesElement__electronegativity_allred-rochow": [0.001146384, 0.000208], "includesElement__electronegativity_cottrell-sutton": [0.2687419, 0.1612452], "includesElement__electronegativity_ghosh": [0.304575, 0.1376494], "includesElement__electronegativity_gordy": [0.07222222, 0.026], "includesElement__electronegativity_mulliken": [7.539584, 4.20525], "includesElement__electronegativity_nagle": [1.042218, 0.4807499], "includesElement__electronegativity_pauling": [3.44, 2.2], "includesElement__electronegativity_sanderson": [0.9416494, 0.9579373], "includesElement__en_ghosh": [0.304575, 0.1376494], "includesElement__en_pauling": [3.44, 2.2], "includesElement__glawe_number": [97, 61], "includesElement__group_id": [16, 8], "includesElement__heat_of_formation": [249.229, 650.6], "includesElement__is_radioactive": [false], "includesElement__lattice_constant": [6.83, 2.7], "includesElement__mendeleev_number": [99, 60], "includesElement__molar_heat_capacity": [29.378, 24.06], "includesElement__period": [2, 5], "includesElement__pettifor_number": [101, 63], "includesElement__specific_heat_capacity": [0.918, 0.238], "includesElement__vdw_radius": [152.0, 213.0], "includesElement__vdw_radius_alvarez": [150.0, 246.0], "includesElement__vdw_radius_mm3": [182.0, 234.0], "includesElement__vdw_radius_uff": [350.0, 296.3], "includesElement__abundance_sea": [857000.0, 7e-07], "includesElement__c6_gb": [16.7, 809.0], "includesElement__covalent_radius_bragg": [65.0], "includesElement__electronegativity_allen": [21.36, 9.1], "includesElement__en_allen": [21.36, 9.1], "includesElement__thermal_conductivity": [0.027, 117.0], "includesElement__vdw_radius_batsanov": [155.0, 205.0], "includesElement__c6": [15.6], "includesElement__vdw_radius_dreiding": [340.46], "includesElement__gas_basicity": [459.6, 751.4], "includesElement__proton_affinity": [485.2, 774.0], "includesElement__vdw_radius_bondi": [152.0], "includesElement__vdw_radius_rt": [158.0], "includesElement__fusion_heat": [25.5], "includesElement__atomic_weight_uncertainty": [0.02], "includesElement__metallic_radius": [125.0], "includesElement__metallic_radius_c12": [134.0], "formula": ["O8Ru4"], "spacegroup": ["205"], "thermalConductivity": [9.89981], "icsd": ["66939"], "band_gap": [0.0], "density": [7.784719], "density_atomic": [9.461525], "deprecated": [false], "efermi": [5.590465], "energy_above_hull": [0.0648386], "energy_per_atom": [-13.59358], "formation_energy_per_atom": [-1.144965], "is_gap_direct": [false], "is_magnetic": [false], "is_metal": [true], "is_stable": [false], "nelements": [2], "nsites": [12], "num_magnetic_sites": [0], "num_unique_magnetic_sites": [0], "theoretical": [false], "total_magnetization": [1.5e-06], "total_magnetization_normalized_formula_units": [3.75e-07], "total_magnetization_normalized_vol": [1.32114e-08], "uncorrected_energy_per_atom": [-13.59358], "volume": [113.5383]}