{"includesElement": ["", "Al", "Er"], "includesElement___series_id": [7, 9], "includesElement__abundance_crust": [82300.0, 3.5], "includesElement__atomic_number": [13, 68], "includesElement__atomic_radius": [125.0, 175.0], "includesElement__atomic_radius_rahm": [239.0, 272.0], "includesElement__atomic_volume": [10.0, 18.4], "includesElement__atomic_weight": [26.98154, 167.259], "includesElement__covalent_radius_cordero": [121.0, 189.0], "includesElement__covalent_radius_pyykko": [126.0, 165.0], "includesElement__covalent_radius_pyykko_double": [113.0, 133.0], "includesElement__covalent_radius_pyykko_triple": [111.0], "includesElement__density": [2.7, 9.07], "includesElement__dipole_polarizability": [57.8, 150.0], "includesElement__dipole_polarizability_unc": [1.0, 10.0], "includesElement__discovery_year": [1825, 1843], "includesElement__electron_affinity": [0.43283], "includesElement__electronegativity_allred-rochow": [0.0002204586, 0.0001046832], "includesElement__electronegativity_cottrell-sutton": [0.1666667, 0.1314257], "includesElement__electronegativity_ghosh": [0.150078, 0.212261], "includesElement__electronegativity_gordy": [0.02777778, 0.01727273], "includesElement__electronegativity_mulliken": [3.209299, 3.05385], "includesElement__electronegativity_nagle": [0.3730192, 0.4536061], "includesElement__electronegativity_pauling": [1.61, 1.24], "includesElement__electronegativity_sanderson": [0.2360927, 0.5576573], "includesElement__en_ghosh": [0.150078, 0.212261], "includesElement__en_pauling": [1.61, 1.24], "includesElement__evaporation_heat": [284.1, 317.0], "includesElement__fusion_heat": [10.75], "includesElement__glawe_number": [78, 22], "includesElement__group_id": [13], "includesElement__heat_of_formation": [330.9, 316.4], "includesElement__is_radioactive": [false], "includesElement__lattice_constant": [4.05, 3.56], "includesElement__mendeleev_number": [82, 35], "includesElement__molar_heat_capacity": [24.2, 28.12], "includesElement__period": [3, 6], "includesElement__pettifor_number": [80, 23], "includesElement__specific_heat_capacity": [0.897, 0.168], "includesElement__vdw_radius": [184.0, 229.0], "includesElement__vdw_radius_alvarez": [225.0, 283.0], "includesElement__vdw_radius_mm3": [236.0, 267.0], "includesElement__vdw_radius_uff": [449.9, 339.1], "includesElement__abundance_sea": [0.002, 8.7e-07], "includesElement__atomic_weight_uncertainty": [7e-07, 0.003], "includesElement__c6_gb": [520.0, 2150.0], "includesElement__covalent_radius_bragg": [135.0], "includesElement__electronegativity_allen": [9.539], "includesElement__en_allen": [9.539], "includesElement__metallic_radius": [125.0], "includesElement__metallic_radius_c12": [143.0], "includesElement__thermal_conductivity": [237.0], "includesElement__vdw_radius_batsanov": [210.0], "includesElement__c6": [528.0], "includesElement__is_monoisotopic": [true], "includesElement__vdw_radius_dreiding": [439.0], "includesElement__vdw_radius_truhlar": [184.0], "formula": ["Al8Er12"], "spacegroup": ["136"], "thermalConductivity": [2.40611], "icsd": ["57765"], "band_gap": [0.0], "density": [7.4368], "density_atomic": [24.81788], "deprecated": [false], "efermi": [4.0146], "energy_above_hull": [0.01694661], "energy_per_atom": [-23.42162], "formation_energy_per_atom": [-0.3735214], "is_gap_direct": [false], "is_magnetic": [false], "is_metal": [true], "is_stable": [false], "nelements": [2], "nsites": [20], "num_magnetic_sites": [0], "num_unique_magnetic_sites": [0], "theoretical": [false], "total_magnetization": [4e-07], "total_magnetization_normalized_formula_units": [1e-07], "total_magnetization_normalized_vol": [8.058705e-10], "uncorrected_energy_per_atom": [-23.42162], "volume": [496.3576]}