{"includesElement": ["", "Si", "Dy"], "includesElement___series_id": [5, 9], "includesElement__abundance_crust": [282000.0, 5.2], "includesElement__atomic_number": [14, 66], "includesElement__atomic_radius": [110.0, 175.0], "includesElement__atomic_radius_rahm": [232.0, 275.0], "includesElement__atomic_volume": [12.1, 19.0], "includesElement__atomic_weight": [28.085, 162.5], "includesElement__covalent_radius_cordero": [111.0, 192.0], "includesElement__covalent_radius_pyykko": [116.0, 167.0], "includesElement__covalent_radius_pyykko_double": [107.0, 133.0], "includesElement__covalent_radius_pyykko_triple": [102.0], "includesElement__density": [2.3296, 8.55], "includesElement__dipole_polarizability": [37.3, 163.0], "includesElement__dipole_polarizability_unc": [0.7, 15.0], "includesElement__discovery_year": [1824, 1886], "includesElement__electron_affinity": [1.389521, 0.352], "includesElement__electronegativity_allred-rochow": [0.0003084126, 0.0001021908], "includesElement__electronegativity_cottrell-sutton": [0.1891451, 0.1306364], "includesElement__electronegativity_ghosh": [0.178503, 0.20333], "includesElement__electronegativity_gordy": [0.03577586, 0.01706587], "includesElement__electronegativity_mulliken": [4.770602, 3.145525], "includesElement__electronegativity_nagle": [0.4750986, 0.4191131], "includesElement__electronegativity_pauling": [1.9, 1.22], "includesElement__electronegativity_sanderson": [0.3468158, 0.5297338], "includesElement__en_ghosh": [0.178503, 0.20333], "includesElement__en_pauling": [1.9, 1.22], "includesElement__evaporation_heat": [383.0, 291.0], "includesElement__fusion_heat": [50.6], "includesElement__glawe_number": [85, 24], "includesElement__group_id": [14], "includesElement__heat_of_formation": [450.0, 290.4], "includesElement__is_radioactive": [false], "includesElement__lattice_constant": [5.43, 3.59], "includesElement__mendeleev_number": [88, 31], "includesElement__molar_heat_capacity": [19.99, 28.16], "includesElement__period": [3, 6], "includesElement__pettifor_number": [85, 25], "includesElement__specific_heat_capacity": [0.712, 0.173], "includesElement__vdw_radius": [210.0, 231.0], "includesElement__vdw_radius_alvarez": [219.0, 287.0], "includesElement__vdw_radius_mm3": [229.0, 290.0], "includesElement__vdw_radius_uff": [429.5, 342.8], "includesElement__abundance_sea": [2.2, 9.1e-07], "includesElement__c6_gb": [308.0, 2430.0], "includesElement__covalent_radius_bragg": [117.0], "includesElement__electronegativity_allen": [11.33], "includesElement__en_allen": [11.33], "includesElement__metallic_radius": [117.0], "includesElement__metallic_radius_c12": [138.0], "includesElement__thermal_conductivity": [149.0, 10.7], "includesElement__vdw_radius_batsanov": [210.0], "includesElement__c6": [305.0], "includesElement__vdw_radius_dreiding": [427.0], "includesElement__gas_basicity": [814.1], "includesElement__proton_affinity": [837.0], "includesElement__vdw_radius_bondi": [210.0], "includesElement__atomic_weight_uncertainty": [0.001], "formula": ["Dy2Si2"], "spacegroup": ["63"], "thermalConductivity": [12.3647], "icsd": ["154699"], "band_gap": [0.0], "density": [7.365938], "density_atomic": [21.48231], "deprecated": [false], "efermi": [5.392711], "energy_above_hull": [0.00317644], "energy_per_atom": [-21.27623], "formation_energy_per_atom": [-0.8984504], "homogeneous_poisson": [0.21], "is_gap_direct": [false], "is_magnetic": [false], "is_metal": [true], "is_stable": [false], "nelements": [2], "nsites": [4], "num_magnetic_sites": [0], "num_unique_magnetic_sites": [0], "theoretical": [false], "total_magnetization": [3e-06], "total_magnetization_normalized_formula_units": [1.5e-06], "total_magnetization_normalized_vol": [3.491245e-08], "uncorrected_energy_per_atom": [-21.27623], "universal_anisotropy": [0.513], "volume": [85.92923]}