{"includesElement": ["", "Ni", "Zr"], "includesElement___series_id": [8], "includesElement__abundance_crust": [84.0, 165.0], "includesElement__atomic_number": [28, 40], "includesElement__atomic_radius": [135.0, 155.0], "includesElement__atomic_radius_rahm": [229.0, 269.0], "includesElement__atomic_volume": [6.6, 14.1], "includesElement__atomic_weight": [58.6934, 91.224], "includesElement__covalent_radius_cordero": [124.0, 175.0], "includesElement__covalent_radius_pyykko": [110.0, 154.0], "includesElement__covalent_radius_pyykko_double": [101.0, 127.0], "includesElement__covalent_radius_pyykko_triple": [101.0, 121.0], "includesElement__density": [8.9, 6.52], "includesElement__dipole_polarizability": [49.0, 112.0], "includesElement__dipole_polarizability_unc": [3.0, 13.0], "includesElement__discovery_year": [1751, 1789], "includesElement__electron_affinity": [1.156, 0.426], "includesElement__electronegativity_allred-rochow": [0.0003347107, 0.0001328217], "includesElement__electronegativity_cottrell-sutton": [0.1918806, 0.1430194], "includesElement__electronegativity_ghosh": [0.1472068, 0.1248887], "includesElement__electronegativity_gordy": [0.03681818, 0.02045455], "includesElement__electronegativity_mulliken": [4.397939, 3.52995], "includesElement__electronegativity_nagle": [0.588755, 0.3293169], "includesElement__electronegativity_pauling": [1.91, 1.33], "includesElement__electronegativity_sanderson": [0.937704, 0.4744467], "includesElement__en_ghosh": [0.1472068, 0.1248887], "includesElement__en_pauling": [1.91, 1.33], "includesElement__evaporation_heat": [378.6, 567.0], "includesElement__fusion_heat": [17.61, 19.2], "includesElement__glawe_number": [69, 49], "includesElement__group_id": [10, 4], "includesElement__heat_of_formation": [430.1, 610.0], "includesElement__is_radioactive": [false], "includesElement__lattice_constant": [3.52, 3.23], "includesElement__mendeleev_number": [67, 44], "includesElement__molar_heat_capacity": [26.07, 25.36], "includesElement__period": [4, 5], "includesElement__pettifor_number": [67, 49], "includesElement__specific_heat_capacity": [0.444, 0.278], "includesElement__vdw_radius": [197.0, 223.0], "includesElement__vdw_radius_alvarez": [240.0, 252.0], "includesElement__vdw_radius_mm3": [222.0, 254.0], "includesElement__vdw_radius_uff": [283.4, 312.4], "includesElement__abundance_sea": [0.00056, 3e-05], "includesElement__atomic_weight_uncertainty": [0.0004, 0.002], "includesElement__c6_gb": [393.0, 1360.0], "includesElement__covalent_radius_bragg": [135.0], "includesElement__electronegativity_allen": [11.13, 7.808], "includesElement__en_allen": [11.13, 7.808], "includesElement__metallic_radius": [115.0, 145.0], "includesElement__metallic_radius_c12": [124.0, 160.0], "includesElement__thermal_conductivity": [90.9, 22.7], "includesElement__vdw_radius_batsanov": [200.0, 230.0], "includesElement__c6": [373.0], "includesElement__gas_basicity": [714.1], "includesElement__proton_affinity": [737.0], "formula": ["Ni2Zr2"], "spacegroup": ["63"], "thermalConductivity": [3.18895], "icsd": ["105478"], "band_gap": [0.0], "density": [7.528269], "density_atomic": [16.53393], "deprecated": [false], "efermi": [5.74414], "energy_above_hull": [0.0], "energy_per_atom": [-7.619652], "formation_energy_per_atom": [-0.4557337], "homogeneous_poisson": [0.374], "is_gap_direct": [false], "is_magnetic": [false], "is_metal": [true], "is_stable": [true], "nelements": [2], "nsites": [4], "num_magnetic_sites": [0], "num_unique_magnetic_sites": [0], "theoretical": [false], "total_magnetization": [0.0], "total_magnetization_normalized_formula_units": [0.0], "total_magnetization_normalized_vol": [0.0], "uncorrected_energy_per_atom": [-17.82835], "universal_anisotropy": [3.166], "volume": [66.13571], "equilibrium_reaction_energy_per_atom": [-0.07851252]}