{"includesElement": ["", "Sr", "C"], "includesElement___series_id": [4, 1], "includesElement__abundance_crust": [370.0, 200.0], "includesElement__atomic_number": [38, 6], "includesElement__atomic_radius": [200.0, 70.0], "includesElement__atomic_radius_rahm": [279.0, 190.0], "includesElement__atomic_volume": [33.7, 5.3], "includesElement__atomic_weight": [87.62, 12.011], "includesElement__covalent_radius_cordero": [195.0, 73.0], "includesElement__covalent_radius_pyykko": [185.0, 75.0], "includesElement__covalent_radius_pyykko_double": [157.0, 67.0], "includesElement__covalent_radius_pyykko_triple": [139.0, 60.0], "includesElement__density": [2.64, 2.2], "includesElement__dipole_polarizability": [197.2, 11.3], "includesElement__dipole_polarizability_unc": [0.2], "includesElement__discovery_year": [1790], "includesElement__electron_affinity": [0.048, 1.262119], "includesElement__electronegativity_allred-rochow": [8.327246e-05, 0.0005777778], "includesElement__electronegativity_cottrell-sutton": [0.1241185, 0.2081666], "includesElement__electronegativity_ghosh": [0.1185082, 0.224776], "includesElement__electronegativity_gordy": [0.01540541, 0.04333333], "includesElement__electronegativity_mulliken": [2.871434, 6.261208], "includesElement__electronegativity_nagle": [0.2164584, 0.7073926], "includesElement__electronegativity_pauling": [0.95, 2.55], "includesElement__electronegativity_sanderson": [0.2631786, 0.427525], "includesElement__en_ghosh": [0.1185082, 0.224776], "includesElement__en_pauling": [0.95, 2.55], "includesElement__evaporation_heat": [144.0], "includesElement__fusion_heat": [9.2], "includesElement__glawe_number": [15, 87], "includesElement__group_id": [2, 14], "includesElement__heat_of_formation": [164.0, 716.87], "includesElement__is_radioactive": [false], "includesElement__lattice_constant": [6.08, 3.57], "includesElement__mendeleev_number": [8, 87], "includesElement__molar_heat_capacity": [26.79, 8.517], "includesElement__period": [5, 2], "includesElement__pettifor_number": [15, 95], "includesElement__specific_heat_capacity": [0.306, 0.709], "includesElement__vdw_radius": [249.0, 170.0], "includesElement__vdw_radius_alvarez": [284.0, 177.0], "includesElement__vdw_radius_mm3": [300.0, 204.0], "includesElement__vdw_radius_uff": [364.1, 385.1], "includesElement__abundance_sea": [7.9, 28.0], "includesElement__atomic_weight_uncertainty": [0.01], "includesElement__c6_gb": [3230.0, 47.9], "includesElement__covalent_radius_bragg": [195.0, 77.0], "includesElement__electronegativity_allen": [5.695, 15.05], "includesElement__en_allen": [5.695, 15.05], "includesElement__metallic_radius": [191.0], "includesElement__metallic_radius_c12": [215.0, 86.0], "includesElement__vdw_radius_batsanov": [255.0, 170.0], "includesElement__c6": [3175.0, 46.6], "includesElement__vdw_radius_truhlar": [249.0], "includesElement__thermal_conductivity": [1.59], "includesElement__vdw_radius_dreiding": [389.83], "includesElement__vdw_radius_bondi": [170.0], "includesElement__vdw_radius_rt": [177.0], "formula": ["C60Sr6"], "spacegroup": ["204"], "thermalConductivity": [5.74134], "icsd": ["75356"], "band_gap": [0.0], "density": [3.056549], "density_atomic": [10.25931], "deprecated": [false], "efermi": [5.885067], "energy_above_hull": [0.2352409], "energy_per_atom": [-8.334728], "formation_energy_per_atom": [0.2088253], "is_gap_direct": [false], "is_magnetic": [false], "is_metal": [true], "is_stable": [false], "nelements": [2], "nsites": [66], "num_magnetic_sites": [0], "num_unique_magnetic_sites": [0], "theoretical": [false], "total_magnetization": [0.0009735], "total_magnetization_normalized_formula_units": [0.00016225], "total_magnetization_normalized_vol": [1.437719e-06], "uncorrected_energy_per_atom": [-8.334728], "volume": [677.1143]}