{"includesElement": ["", "Sr", "In"], "includesElement___series_id": [4, 7], "includesElement__abundance_crust": [370.0, 0.25], "includesElement__atomic_number": [38, 49], "includesElement__atomic_radius": [200.0, 155.0], "includesElement__atomic_radius_rahm": [279.0, 246.0], "includesElement__atomic_volume": [33.7, 15.7], "includesElement__atomic_weight": [87.62, 114.818], "includesElement__covalent_radius_cordero": [195.0, 142.0], "includesElement__covalent_radius_pyykko": [185.0, 142.0], "includesElement__covalent_radius_pyykko_double": [157.0, 136.0], "includesElement__covalent_radius_pyykko_triple": [139.0, 146.0], "includesElement__density": [2.64, 7.31], "includesElement__dipole_polarizability": [197.2, 65.0], "includesElement__dipole_polarizability_unc": [0.2, 4.0], "includesElement__discovery_year": [1790, 1863], "includesElement__electron_affinity": [0.048, 0.3], "includesElement__electronegativity_allred-rochow": [8.327246e-05, 0.0002479667], "includesElement__electronegativity_cottrell-sutton": [0.1241185, 0.1876467], "includesElement__electronegativity_ghosh": [0.1185082, 0.16423], "includesElement__electronegativity_gordy": [0.01540541, 0.03521127], "includesElement__electronegativity_mulliken": [2.871434, 3.043178], "includesElement__electronegativity_nagle": [0.2164584, 0.3587038], "includesElement__electronegativity_pauling": [0.95, 1.78], "includesElement__electronegativity_sanderson": [0.2631786, 0.7172747], "includesElement__en_ghosh": [0.1185082, 0.16423], "includesElement__en_pauling": [0.95, 1.78], "includesElement__evaporation_heat": [144.0, 225.1], "includesElement__fusion_heat": [9.2, 3.24], "includesElement__glawe_number": [15, 80], "includesElement__group_id": [2, 13], "includesElement__heat_of_formation": [164.0, 243.0], "includesElement__is_radioactive": [false], "includesElement__lattice_constant": [6.08, 4.59], "includesElement__mendeleev_number": [8, 84], "includesElement__molar_heat_capacity": [26.79, 26.74], "includesElement__period": [5], "includesElement__pettifor_number": [15, 79], "includesElement__specific_heat_capacity": [0.306, 0.233], "includesElement__vdw_radius": [249.0, 193.0], "includesElement__vdw_radius_alvarez": [284.0, 243.0], "includesElement__vdw_radius_mm3": [300.0, 264.0], "includesElement__vdw_radius_uff": [364.1, 446.3], "includesElement__abundance_sea": [7.9, 0.02], "includesElement__atomic_weight_uncertainty": [0.01, 0.001], "includesElement__c6_gb": [3230.0, 643.0], "includesElement__covalent_radius_bragg": [195.0], "includesElement__electronegativity_allen": [5.695, 9.793], "includesElement__en_allen": [5.695, 9.793], "includesElement__metallic_radius": [191.0, 142.0], "includesElement__metallic_radius_c12": [215.0, 158.0], "includesElement__vdw_radius_batsanov": [255.0, 220.0], "includesElement__c6": [3175.0, 779.0], "includesElement__vdw_radius_truhlar": [249.0], "includesElement__thermal_conductivity": [81.8], "includesElement__vdw_radius_dreiding": [459.0], "includesElement__vdw_radius_bondi": [193.0], "formula": ["In1Sr3"], "spacegroup": ["225"], "thermalConductivity": [1.33098], "icsd": ["59542"], "band_gap": [0.0], "density": [3.850703], "density_atomic": [40.71653], "deprecated": [false], "efermi": [2.902559], "energy_above_hull": [0.1316895], "energy_per_atom": [-2.078025], "formation_energy_per_atom": [-0.1189109], "homogeneous_poisson": [0.302], "is_gap_direct": [false], "is_magnetic": [false], "is_metal": [true], "is_stable": [false], "nelements": [2], "nsites": [4], "num_magnetic_sites": [0], "num_unique_magnetic_sites": [0], "theoretical": [false], "total_magnetization": [0.2161303], "total_magnetization_normalized_formula_units": [0.2161303], "total_magnetization_normalized_vol": [0.001327043], "uncorrected_energy_per_atom": [-2.078025], "universal_anisotropy": [2.995], "volume": [162.8661]}