{"includesElement": ["", "Y", "Te"], "includesElement___series_id": [8, 5], "includesElement__abundance_crust": [33.0, 0.001], "includesElement__atomic_number": [39, 52], "includesElement__atomic_radius": [180.0, 140.0], "includesElement__atomic_radius_rahm": [274.0, 242.0], "includesElement__atomic_volume": [19.8, 20.5], "includesElement__atomic_weight": [88.90584, 127.6], "includesElement__covalent_radius_cordero": [190.0, 138.0], "includesElement__covalent_radius_pyykko": [163.0, 136.0], "includesElement__covalent_radius_pyykko_double": [130.0, 128.0], "includesElement__covalent_radius_pyykko_triple": [124.0, 121.0], "includesElement__density": [4.47, 6.232], "includesElement__dipole_polarizability": [162.0, 38.0], "includesElement__dipole_polarizability_unc": [12.0, 4.0], "includesElement__discovery_year": [1789, 1782], "includesElement__electron_affinity": [0.307, 1.970876], "includesElement__electronegativity_allred-rochow": [0.0001129135, 0.0003757569], "includesElement__electronegativity_cottrell-sutton": [0.1356647, 0.2260596], "includesElement__electronegativity_ghosh": [0.1216986, 0.2056992], "includesElement__electronegativity_gordy": [0.01840491, 0.05110294], "includesElement__electronegativity_mulliken": [3.26213, 5.490268], "includesElement__electronegativity_nagle": [0.2645668, 0.5404919], "includesElement__electronegativity_pauling": [1.22, 2.1], "includesElement__electronegativity_sanderson": [0.3923941, 0.8622506], "includesElement__en_ghosh": [0.1216986, 0.2056992], "includesElement__en_pauling": [1.22, 2.1], "includesElement__evaporation_heat": [367.0, 49.8], "includesElement__fusion_heat": [11.5, 17.91], "includesElement__glawe_number": [21, 94], "includesElement__group_id": [3, 16], "includesElement__heat_of_formation": [424.7, 196.6], "includesElement__is_radioactive": [false], "includesElement__lattice_constant": [3.65, 4.45], "includesElement__mendeleev_number": [12, 102], "includesElement__molar_heat_capacity": [26.53, 25.73], "includesElement__period": [5], "includesElement__pettifor_number": [19, 92], "includesElement__specific_heat_capacity": [0.298, 0.202], "includesElement__vdw_radius": [232.0, 206.0], "includesElement__vdw_radius_alvarez": [275.0, 199.0], "includesElement__vdw_radius_mm3": [271.0, 244.0], "includesElement__vdw_radius_uff": [334.5, 447.0], "includesElement__abundance_sea": [1.3e-05], "includesElement__atomic_weight_uncertainty": [2e-05, 0.03], "includesElement__c6_gb": [2600.0, 471.0], "includesElement__electronegativity_allen": [6.631, 12.76], "includesElement__en_allen": [6.631, 12.76], "includesElement__metallic_radius": [162.0, 137.0], "includesElement__metallic_radius_c12": [180.0, 160.0], "includesElement__vdw_radius_batsanov": [240.0, 210.0], "includesElement__is_monoisotopic": [true], "includesElement__gas_basicity": [945.9], "includesElement__proton_affinity": [967.0], "includesElement__covalent_radius_bragg": [133.0], "includesElement__thermal_conductivity": [14.3], "includesElement__c6": [445.0], "includesElement__vdw_radius_dreiding": [423.0], "includesElement__vdw_radius_bondi": [206.0], "formula": ["Te1Y1"], "spacegroup": ["225"], "thermalConductivity": [4.52453], "icsd": ["106153"], "band_gap": [0.0], "density": [6.150265], "density_atomic": [29.22772], "deprecated": [false], "efermi": [6.54196], "energy_above_hull": [0.02679962], "energy_per_atom": [-6.309985], "formation_energy_per_atom": [-1.483786], "homogeneous_poisson": [0.341], "is_gap_direct": [false], "is_magnetic": [false], "is_metal": [true], "is_stable": [false], "nelements": [2], "nsites": [2], "num_magnetic_sites": [0], "num_unique_magnetic_sites": [0], "theoretical": [false], "total_magnetization": [1.2e-06], "total_magnetization_normalized_formula_units": [1.2e-06], "total_magnetization_normalized_vol": [2.052846e-08], "uncorrected_energy_per_atom": [-24.3806], "universal_anisotropy": [9.402], "volume": [58.45544]}