{"includesElement": ["", "Rh", "Dy"], "includesElement___series_id": [8, 9], "includesElement__abundance_crust": [0.001, 5.2], "includesElement__atomic_number": [45, 66], "includesElement__atomic_radius": [135.0, 175.0], "includesElement__atomic_radius_rahm": [233.0, 275.0], "includesElement__atomic_volume": [8.3, 19.0], "includesElement__atomic_weight": [102.9055, 162.5], "includesElement__covalent_radius_cordero": [142.0, 192.0], "includesElement__covalent_radius_pyykko": [125.0, 167.0], "includesElement__covalent_radius_pyykko_double": [110.0, 133.0], "includesElement__covalent_radius_pyykko_triple": [106.0], "includesElement__density": [12.4, 8.55], "includesElement__dipole_polarizability": [66.0, 163.0], "includesElement__dipole_polarizability_unc": [10.0, 15.0], "includesElement__discovery_year": [1803, 1886], "includesElement__electron_affinity": [1.137, 0.352], "includesElement__electronegativity_allred-rochow": [0.0002176, 0.0001021908], "includesElement__electronegativity_cottrell-sutton": [0.1649242, 0.1306364], "includesElement__electronegativity_ghosh": [0.1408379, 0.20333], "includesElement__electronegativity_gordy": [0.0272, 0.01706587], "includesElement__electronegativity_mulliken": [4.29795, 3.145525], "includesElement__electronegativity_nagle": [0.5147142, 0.4191131], "includesElement__electronegativity_pauling": [2.28, 1.22], "includesElement__electronegativity_sanderson": [0.9761915, 0.5297338], "includesElement__en_ghosh": [0.1408379, 0.20333], "includesElement__en_pauling": [2.28, 1.22], "includesElement__evaporation_heat": [494.0, 291.0], "includesElement__fusion_heat": [21.8], "includesElement__glawe_number": [63, 24], "includesElement__group_id": [9], "includesElement__heat_of_formation": [556.0, 290.4], "includesElement__is_radioactive": [false], "includesElement__lattice_constant": [3.8, 3.59], "includesElement__mendeleev_number": [64, 31], "includesElement__molar_heat_capacity": [24.98, 28.16], "includesElement__period": [5, 6], "includesElement__pettifor_number": [66, 25], "includesElement__specific_heat_capacity": [0.243, 0.173], "includesElement__vdw_radius": [210.0, 231.0], "includesElement__vdw_radius_alvarez": [244.0, 287.0], "includesElement__vdw_radius_mm3": [234.0, 290.0], "includesElement__vdw_radius_uff": [292.9, 342.8], "includesElement__atomic_weight_uncertainty": [2e-05, 0.001], "includesElement__c6_gb": [708.0, 2430.0], "includesElement__electronegativity_allen": [9.259], "includesElement__en_allen": [9.259], "includesElement__metallic_radius": [125.0], "includesElement__metallic_radius_c12": [134.0], "includesElement__thermal_conductivity": [150.0, 10.7], "includesElement__vdw_radius_batsanov": [200.0], "includesElement__is_monoisotopic": [true], "includesElement__gas_basicity": [745.4], "includesElement__proton_affinity": [768.0], "includesElement__abundance_sea": [9.1e-07], "formula": ["Dy1Rh1"], "spacegroup": ["221"], "thermalConductivity": [6.82856], "icsd": ["103359"], "band_gap": [0.0], "density": [11.18569], "density_atomic": [19.7], "deprecated": [false], "efermi": [4.685152], "energy_above_hull": [0.0], "energy_per_atom": [-6.869968], "formation_energy_per_atom": [-0.8786264], "homogeneous_poisson": [0.336], "is_gap_direct": [false], "is_magnetic": [false], "is_metal": [true], "is_stable": [true], "nelements": [2], "nsites": [2], "num_magnetic_sites": [0], "num_unique_magnetic_sites": [0], "theoretical": [false], "total_magnetization": [2.99e-05], "total_magnetization_normalized_formula_units": [2.99e-05], "total_magnetization_normalized_vol": [7.588831e-07], "uncorrected_energy_per_atom": [-29.01044], "universal_anisotropy": [0.083], "volume": [39.40001], "equilibrium_reaction_energy_per_atom": [-0.1258545]}