{"includesElement": ["", "Li", "Al"], "includesElement___series_id": [3, 7], "includesElement__abundance_crust": [20.0, 82300.0], "includesElement__atomic_number": [3, 13], "includesElement__atomic_radius": [145.0, 125.0], "includesElement__atomic_radius_rahm": [220.0, 239.0], "includesElement__atomic_volume": [13.1, 10.0], "includesElement__atomic_weight": [6.94, 26.98154], "includesElement__covalent_radius_cordero": [128.0, 121.0], "includesElement__covalent_radius_pyykko": [133.0, 126.0], "includesElement__covalent_radius_pyykko_double": [124.0, 113.0], "includesElement__density": [0.534, 2.7], "includesElement__dipole_polarizability": [164.1125, 57.8], "includesElement__dipole_polarizability_unc": [0.0005, 1.0], "includesElement__discovery_year": [1817, 1825], "includesElement__electron_affinity": [0.618049, 0.43283], "includesElement__electronegativity_allred-rochow": [7.3492e-05, 0.0002204586], "includesElement__electronegativity_cottrell-sutton": [0.09886575, 0.1666667], "includesElement__electronegativity_ghosh": [0.105093, 0.150078], "includesElement__electronegativity_gordy": [0.009774436, 0.02777778], "includesElement__electronegativity_mulliken": [3.004882, 3.209299], "includesElement__electronegativity_nagle": [0.1826499, 0.3730192], "includesElement__electronegativity_pauling": [0.98, 1.61], "includesElement__electronegativity_sanderson": [0.04886793, 0.2360927], "includesElement__en_ghosh": [0.105093, 0.150078], "includesElement__en_pauling": [0.98, 1.61], "includesElement__evaporation_heat": [148.0, 284.1], "includesElement__fusion_heat": [2.89, 10.75], "includesElement__glawe_number": [12, 78], "includesElement__group_id": [1, 13], "includesElement__heat_of_formation": [159.3, 330.9], "includesElement__is_radioactive": [false], "includesElement__lattice_constant": [3.49, 4.05], "includesElement__mendeleev_number": [1, 82], "includesElement__molar_heat_capacity": [24.86, 24.2], "includesElement__period": [2, 3], "includesElement__pettifor_number": [12, 80], "includesElement__specific_heat_capacity": [3.582, 0.897], "includesElement__vdw_radius": [182.0, 184.0], "includesElement__vdw_radius_alvarez": [212.0, 225.0], "includesElement__vdw_radius_mm3": [255.0, 236.0], "includesElement__vdw_radius_uff": [245.1, 449.9], "includesElement__abundance_sea": [0.18, 0.002], "includesElement__c6_gb": [1410.0, 520.0], "includesElement__covalent_radius_bragg": [150.0, 135.0], "includesElement__electronegativity_allen": [5.392, 9.539], "includesElement__en_allen": [5.392, 9.539], "includesElement__metallic_radius": [123.0, 125.0], "includesElement__metallic_radius_c12": [155.0, 143.0], "includesElement__thermal_conductivity": [84.8, 237.0], "includesElement__vdw_radius_batsanov": [220.0, 210.0], "includesElement__c6": [1392.0, 528.0], "includesElement__vdw_radius_bondi": [181.0], "includesElement__covalent_radius_pyykko_triple": [111.0], "includesElement__atomic_weight_uncertainty": [7e-07], "includesElement__is_monoisotopic": [true], "includesElement__vdw_radius_dreiding": [439.0], "includesElement__vdw_radius_truhlar": [184.0], "formula": ["Al3Li1"], "spacegroup": ["221"], "thermalConductivity": [7.1534], "icsd": ["57952"], "band_gap": [0.0], "density": [2.287408], "density_atomic": [15.9501], "deprecated": [false], "efermi": [6.081305], "energy_above_hull": [0.01094958], "energy_per_atom": [-5.73904], "formation_energy_per_atom": [-0.09328982], "homogeneous_poisson": [0.239], "is_gap_direct": [false], "is_magnetic": [false], "is_metal": [true], "is_stable": [false], "nelements": [2], "nsites": [4], "num_magnetic_sites": [0], "num_unique_magnetic_sites": [0], "theoretical": [false], "total_magnetization": [1e-06], "total_magnetization_normalized_formula_units": [1e-06], "total_magnetization_normalized_vol": [1.567389e-08], "uncorrected_energy_per_atom": [-5.73904], "universal_anisotropy": [0.105], "volume": [63.80038]}