{"includesElement": ["", "Tl", "Dy"], "includesElement___series_id": [7, 9], "includesElement__abundance_crust": [0.85, 5.2], "includesElement__atomic_number": [81, 66], "includesElement__atomic_radius": [190.0, 175.0], "includesElement__atomic_radius_rahm": [242.0, 275.0], "includesElement__atomic_volume": [17.2, 19.0], "includesElement__atomic_weight": [204.38, 162.5], "includesElement__covalent_radius_cordero": [145.0, 192.0], "includesElement__covalent_radius_pyykko": [144.0, 167.0], "includesElement__covalent_radius_pyykko_double": [142.0, 133.0], "includesElement__covalent_radius_pyykko_triple": [150.0], "includesElement__density": [11.8, 8.55], "includesElement__dipole_polarizability": [50.0, 163.0], "includesElement__dipole_polarizability_unc": [2.0, 15.0], "includesElement__discovery_year": [1861, 1886], "includesElement__electron_affinity": [0.377, 0.352], "includesElement__electronegativity_allred-rochow": [0.0002411265, 0.0001021908], "includesElement__electronegativity_cottrell-sutton": [0.186339, 0.1306364], "includesElement__electronegativity_ghosh": [0.173447, 0.20333], "includesElement__electronegativity_gordy": [0.03472222, 0.01706587], "includesElement__electronegativity_mulliken": [3.242643, 3.145525], "includesElement__electronegativity_nagle": [0.3914868, 0.4191131], "includesElement__electronegativity_pauling": [1.8, 1.22], "includesElement__electronegativity_sanderson": [0.9245096, 0.5297338], "includesElement__en_ghosh": [0.173447, 0.20333], "includesElement__en_pauling": [1.8, 1.22], "includesElement__evaporation_heat": [162.4, 291.0], "includesElement__fusion_heat": [4.31], "includesElement__glawe_number": [81, 24], "includesElement__group_id": [13], "includesElement__heat_of_formation": [182.2, 290.4], "includesElement__is_radioactive": [false], "includesElement__lattice_constant": [3.46, 3.59], "includesElement__mendeleev_number": [85, 31], "includesElement__molar_heat_capacity": [26.32, 28.16], "includesElement__period": [6], "includesElement__pettifor_number": [78, 25], "includesElement__specific_heat_capacity": [0.129, 0.173], "includesElement__vdw_radius": [196.0, 231.0], "includesElement__vdw_radius_alvarez": [247.0, 287.0], "includesElement__vdw_radius_mm3": [259.0, 290.0], "includesElement__vdw_radius_uff": [434.7, 342.8], "includesElement__abundance_sea": [1.9e-05, 9.1e-07], "includesElement__c6_gb": [509.0, 2430.0], "includesElement__covalent_radius_bragg": [190.0], "includesElement__metallic_radius": [144.0], "includesElement__metallic_radius_c12": [160.0], "includesElement__thermal_conductivity": [46.1, 10.7], "includesElement__vdw_radius_batsanov": [220.0], "includesElement__vdw_radius_bondi": [196.0], "includesElement__atomic_weight_uncertainty": [0.001], "formula": ["Dy4Tl2"], "spacegroup": ["194"], "thermalConductivity": [1.76227], "icsd": ["103378"], "band_gap": [0.0], "density": [10.53809], "density_atomic": [27.80584], "deprecated": [false], "efermi": [4.803844], "energy_above_hull": [0.01220128], "energy_per_atom": [-39.42827], "formation_energy_per_atom": [-0.3806376], "homogeneous_poisson": [0.314], "is_gap_direct": [false], "is_magnetic": [true], "is_metal": [true], "is_stable": [false], "nelements": [2], "nsites": [6], "num_magnetic_sites": [4], "num_unique_magnetic_sites": [2], "theoretical": [false], "total_magnetization": [1.76025], "total_magnetization_normalized_formula_units": [0.8801252], "total_magnetization_normalized_vol": [0.01055084], "uncorrected_energy_per_atom": [-39.42827], "universal_anisotropy": [1.158], "volume": [166.835]}