{"includesElement": ["", "Tl", "Pt"], "includesElement___series_id": [7, 8], "includesElement__abundance_crust": [0.85, 0.005], "includesElement__atomic_number": [81, 78], "includesElement__atomic_radius": [190.0, 135.0], "includesElement__atomic_radius_rahm": [242.0, 230.0], "includesElement__atomic_volume": [17.2, 9.1], "includesElement__atomic_weight": [204.38, 195.084], "includesElement__covalent_radius_cordero": [145.0, 136.0], "includesElement__covalent_radius_pyykko": [144.0, 123.0], "includesElement__covalent_radius_pyykko_double": [142.0, 112.0], "includesElement__covalent_radius_pyykko_triple": [150.0, 110.0], "includesElement__density": [11.8, 21.5], "includesElement__dipole_polarizability": [50.0, 48.0], "includesElement__dipole_polarizability_unc": [2.0, 4.0], "includesElement__discovery_year": [1861, 1735], "includesElement__electron_affinity": [0.377, 2.128], "includesElement__electronegativity_allred-rochow": [0.0002411265, 0.0002346487], "includesElement__electronegativity_cottrell-sutton": [0.186339, 0.1698876], "includesElement__electronegativity_ghosh": [0.173447, 0.25691], "includesElement__electronegativity_gordy": [0.03472222, 0.02886179], "includesElement__electronegativity_mulliken": [3.242643, 5.543415], "includesElement__electronegativity_nagle": [0.3914868, 0.5928156], "includesElement__electronegativity_pauling": [1.8, 2.2], "includesElement__electronegativity_sanderson": [0.9245096, 1.45101], "includesElement__en_ghosh": [0.173447, 0.25691], "includesElement__en_pauling": [1.8, 2.2], "includesElement__evaporation_heat": [162.4, 470.0], "includesElement__fusion_heat": [4.31, 21.76], "includesElement__glawe_number": [81, 64], "includesElement__group_id": [13, 10], "includesElement__heat_of_formation": [182.2, 565.7], "includesElement__is_radioactive": [false], "includesElement__lattice_constant": [3.46, 3.92], "includesElement__mendeleev_number": [85, 69], "includesElement__molar_heat_capacity": [26.32, 25.86], "includesElement__period": [6], "includesElement__pettifor_number": [78, 68], "includesElement__specific_heat_capacity": [0.129, 0.133], "includesElement__vdw_radius": [196.0, 213.0], "includesElement__vdw_radius_alvarez": [247.0, 229.0], "includesElement__vdw_radius_mm3": [259.0, 239.0], "includesElement__vdw_radius_uff": [434.7, 275.4], "includesElement__abundance_sea": [1.9e-05], "includesElement__c6_gb": [509.0, 470.0], "includesElement__covalent_radius_bragg": [190.0], "includesElement__metallic_radius": [144.0, 130.0], "includesElement__metallic_radius_c12": [160.0, 139.0], "includesElement__thermal_conductivity": [46.1, 71.6], "includesElement__vdw_radius_batsanov": [220.0, 205.0], "includesElement__vdw_radius_bondi": [196.0], "includesElement__atomic_weight_uncertainty": [0.009], "includesElement__electronegativity_allen": [10.16], "includesElement__en_allen": [10.16], "formula": ["Pt12Tl8"], "spacegroup": ["194"], "thermalConductivity": [0.825858], "icsd": ["105821"], "band_gap": [0.0], "density": [16.76462], "density_atomic": [19.69155], "deprecated": [false], "efermi": [7.059184], "energy_above_hull": [0.0], "energy_per_atom": [-52.32437], "formation_energy_per_atom": [-0.1600201], "is_gap_direct": [false], "is_magnetic": [false], "is_metal": [true], "is_stable": [true], "nelements": [2], "nsites": [20], "num_magnetic_sites": [0], "num_unique_magnetic_sites": [0], "theoretical": [false], "total_magnetization": [0.0], "total_magnetization_normalized_formula_units": [0.0], "total_magnetization_normalized_vol": [0.0], "uncorrected_energy_per_atom": [-52.32437], "volume": [393.8309], "equilibrium_reaction_energy_per_atom": [-0.09624086]}