{"includesElement": ["", "Ti", "H"], "includesElement___series_id": [8, 1], "includesElement__abundance_crust": [5650.0, 1400.0], "includesElement__atomic_number": [22, 1], "includesElement__atomic_radius": [140.0, 25.0], "includesElement__atomic_radius_rahm": [257.0, 154.0], "includesElement__atomic_volume": [10.6, 14.1], "includesElement__atomic_weight": [47.867, 1.008], "includesElement__covalent_radius_cordero": [160.0, 31.0], "includesElement__covalent_radius_pyykko": [136.0, 32.0], "includesElement__covalent_radius_pyykko_double": [117.0], "includesElement__covalent_radius_pyykko_triple": [108.0], "includesElement__density": [4.506, 8.2e-05], "includesElement__dipole_polarizability": [100.0, 4.50711], "includesElement__dipole_polarizability_unc": [10.0, 3e-05], "includesElement__discovery_year": [1791, 1766], "includesElement__electron_affinity": [0.079, 0.754195], "includesElement__electronegativity_allred-rochow": [0.0001703071, 0.0009765625], "includesElement__electronegativity_cottrell-sutton": [0.1521899, 0.1767767], "includesElement__electronegativity_ghosh": [0.1233637, 0.2638], "includesElement__electronegativity_gordy": [0.02316176, 0.03125], "includesElement__electronegativity_mulliken": [3.45356, 7.176315], "includesElement__electronegativity_nagle": [0.3419952, 0.6053882], "includesElement__electronegativity_pauling": [1.54, 2.2], "includesElement__electronegativity_sanderson": [0.4055462, 2.187771], "includesElement__en_ghosh": [0.1233637, 0.2638], "includesElement__en_pauling": [1.54, 2.2], "includesElement__evaporation_heat": [422.6, 0.904], "includesElement__fusion_heat": [18.8, 0.117], "includesElement__glawe_number": [51, 103], "includesElement__group_id": [4, 1], "includesElement__heat_of_formation": [473.0, 217.998], "includesElement__is_radioactive": [false], "includesElement__lattice_constant": [2.95, 3.75], "includesElement__mendeleev_number": [43, 105], "includesElement__molar_heat_capacity": [25.06, 28.836], "includesElement__period": [4, 1], "includesElement__pettifor_number": [51, 103], "includesElement__specific_heat_capacity": [0.523, 14.304], "includesElement__vdw_radius": [211.0, 110.0], "includesElement__vdw_radius_alvarez": [246.0, 120.0], "includesElement__vdw_radius_mm3": [239.0, 162.0], "includesElement__vdw_radius_uff": [317.5, 288.6], "includesElement__abundance_sea": [0.001, 108000.0], "includesElement__atomic_weight_uncertainty": [0.001], "includesElement__c6_gb": [1200.0, 6.51], "includesElement__covalent_radius_bragg": [140.0], "includesElement__electronegativity_allen": [8.17, 13.61], "includesElement__en_allen": [8.17, 13.61], "includesElement__metallic_radius": [132.0], "includesElement__metallic_radius_c12": [147.0, 78.0], "includesElement__thermal_conductivity": [21.9, 0.1815], "includesElement__vdw_radius_batsanov": [215.0], "includesElement__c6": [1044.0, 6.499027], "includesElement__gas_basicity": [853.7], "includesElement__proton_affinity": [876.0], "includesElement__vdw_radius_dreiding": [319.5], "includesElement__vdw_radius_bondi": [120.0], "includesElement__vdw_radius_rt": [110.0], "formula": ["H2Ti2"], "spacegroup": ["131"], "thermalConductivity": [9.50856], "icsd": ["168325"], "band_gap": [0.0], "density": [4.089972], "density_atomic": [9.921675], "deprecated": [false], "efermi": [5.310824], "energy_above_hull": [0.0], "energy_per_atom": [-8.606651], "formation_energy_per_atom": [-0.4102162], "homogeneous_poisson": [0.393], "is_gap_direct": [false], "is_magnetic": [false], "is_metal": [true], "is_stable": [true], "nelements": [2], "nsites": [8], "num_magnetic_sites": [0], "num_unique_magnetic_sites": [0], "theoretical": [false], "total_magnetization": [1.4e-06], "total_magnetization_normalized_formula_units": [3.5e-07], "total_magnetization_normalized_vol": [1.763815e-08], "uncorrected_energy_per_atom": [-8.606651], "universal_anisotropy": [13.001], "volume": [79.3734], "equilibrium_reaction_energy_per_atom": [-0.009822363]}