{"includesElement": ["", "S", "Y"], "includesElement___series_id": [1, 8], "includesElement__abundance_crust": [350.0, 33.0], "includesElement__atomic_number": [16, 39], "includesElement__atomic_radius": [100.0, 180.0], "includesElement__atomic_radius_rahm": [214.0, 274.0], "includesElement__atomic_volume": [15.5, 19.8], "includesElement__atomic_weight": [32.06, 88.90584], "includesElement__covalent_radius_cordero": [105.0, 190.0], "includesElement__covalent_radius_pyykko": [103.0, 163.0], "includesElement__covalent_radius_pyykko_double": [94.0, 130.0], "includesElement__covalent_radius_pyykko_triple": [95.0, 124.0], "includesElement__density": [2.07, 4.47], "includesElement__dipole_polarizability": [19.4, 162.0], "includesElement__dipole_polarizability_unc": [0.1, 12.0], "includesElement__electron_affinity": [2.077104, 0.307], "includesElement__electronegativity_allred-rochow": [0.0005137148, 0.0001129135], "includesElement__electronegativity_cottrell-sutton": [0.2300274, 0.1356647], "includesElement__electronegativity_ghosh": [0.23596, 0.1216986], "includesElement__electronegativity_gordy": [0.05291262, 0.01840491], "includesElement__electronegativity_mulliken": [6.218557, 3.26213], "includesElement__electronegativity_nagle": [0.6762644, 0.2645668], "includesElement__electronegativity_pauling": [2.58, 1.22], "includesElement__electronegativity_sanderson": [0.6397251, 0.3923941], "includesElement__en_ghosh": [0.23596, 0.1216986], "includesElement__en_pauling": [2.58, 1.22], "includesElement__evaporation_heat": [10.5, 367.0], "includesElement__fusion_heat": [1.23, 11.5], "includesElement__glawe_number": [96, 21], "includesElement__group_id": [16, 3], "includesElement__heat_of_formation": [277.17, 424.7], "includesElement__is_radioactive": [false], "includesElement__lattice_constant": [10.47, 3.65], "includesElement__mendeleev_number": [100, 12], "includesElement__molar_heat_capacity": [22.7, 26.53], "includesElement__period": [3, 5], "includesElement__pettifor_number": [94, 19], "includesElement__specific_heat_capacity": [0.708, 0.298], "includesElement__vdw_radius": [180.0, 232.0], "includesElement__vdw_radius_alvarez": [189.0, 275.0], "includesElement__vdw_radius_mm3": [215.0, 271.0], "includesElement__vdw_radius_uff": [403.5, 334.5], "includesElement__abundance_sea": [905.0, 1.3e-05], "includesElement__c6_gb": [140.0, 2600.0], "includesElement__covalent_radius_bragg": [102.0], "includesElement__electronegativity_allen": [15.31, 6.631], "includesElement__en_allen": [15.31, 6.631], "includesElement__metallic_radius": [104.0, 162.0], "includesElement__metallic_radius_c12": [127.0, 180.0], "includesElement__thermal_conductivity": [0.27], "includesElement__vdw_radius_batsanov": [180.0, 240.0], "includesElement__c6": [134.0], "includesElement__vdw_radius_dreiding": [403.0], "includesElement__gas_basicity": [640.2, 945.9], "includesElement__proton_affinity": [664.3, 967.0], "includesElement__vdw_radius_bondi": [180.0], "includesElement__vdw_radius_rt": [181.0], "includesElement__discovery_year": [1789], "includesElement__atomic_weight_uncertainty": [2e-05], "includesElement__is_monoisotopic": [true], "formula": ["S1Y1"], "spacegroup": ["225"], "thermalConductivity": [11.4306], "icsd": ["183011"], "band_gap": [0.0], "density": [4.764254], "density_atomic": [21.08167], "deprecated": [false], "efermi": [6.567727], "energy_above_hull": [0.0], "energy_per_atom": [-16.41628], "formation_energy_per_atom": [-2.241981], "homogeneous_poisson": [0.304], "is_gap_direct": [false], "is_magnetic": [false], "is_metal": [true], "is_stable": [true], "nelements": [2], "nsites": [2], "num_magnetic_sites": [0], "num_unique_magnetic_sites": [0], "theoretical": [false], "total_magnetization": [4.1e-06], "total_magnetization_normalized_formula_units": [4.1e-06], "total_magnetization_normalized_vol": [9.724089e-08], "uncorrected_energy_per_atom": [-16.41628], "universal_anisotropy": [3.079], "volume": [42.16333], "equilibrium_reaction_energy_per_atom": [-0.2036883]}