{"includesElement": ["", "Tb"], "includesElement___series_id": [9], "includesElement__abundance_crust": [1.2], "includesElement__atomic_number": [65], "includesElement__atomic_radius": [175.0], "includesElement__atomic_radius_rahm": [276.0], "includesElement__atomic_volume": [19.2], "includesElement__atomic_weight": [158.9254], "includesElement__covalent_radius_cordero": [194.0], "includesElement__covalent_radius_pyykko": [168.0], "includesElement__covalent_radius_pyykko_double": [135.0], "includesElement__density": [8.23], "includesElement__dipole_polarizability": [170.0], "includesElement__dipole_polarizability_unc": [20.0], "includesElement__discovery_year": [1843], "includesElement__electron_affinity": [1.165], "includesElement__electronegativity_allred-rochow": [0.0001009779], "includesElement__electronegativity_cottrell-sutton": [0.130247], "includesElement__electronegativity_ghosh": [0.198863], "includesElement__electronegativity_gordy": [0.01696429], "includesElement__electronegativity_mulliken": [3.5144], "includesElement__electronegativity_nagle": [0.4014652], "includesElement__electronegativity_sanderson": [0.5163695], "includesElement__en_ghosh": [0.198863], "includesElement__evaporation_heat": [389.0], "includesElement__glawe_number": [25], "includesElement__heat_of_formation": [388.7], "includesElement__is_radioactive": [false], "includesElement__lattice_constant": [3.6], "includesElement__mendeleev_number": [29], "includesElement__molar_heat_capacity": [28.91], "includesElement__period": [6], "includesElement__pettifor_number": [26], "includesElement__specific_heat_capacity": [0.182], "includesElement__vdw_radius": [233.0], "includesElement__vdw_radius_alvarez": [279.0], "includesElement__vdw_radius_mm3": [270.0], "includesElement__vdw_radius_uff": [345.1], "includesElement__abundance_sea": [1.4e-07], "includesElement__atomic_weight_uncertainty": [2e-05], "includesElement__c6_gb": [2590.0], "includesElement__thermal_conductivity": [11.1], "includesElement__is_monoisotopic": [true], "formula": ["Tb6"], "spacegroup": ["194"], "thermalConductivity": [4.67276], "icsd": ["52496"], "band_gap": [0.0], "density": [8.117333], "density_atomic": [32.51089], "deprecated": [false], "efermi": [3.347609], "energy_above_hull": [0.001571725], "energy_per_atom": [-31.22486], "formation_energy_per_atom": [0.001571725], "homogeneous_poisson": [0.229], "is_gap_direct": [false], "is_magnetic": [true], "is_metal": [true], "is_stable": [false], "nelements": [1], "nsites": [6], "num_magnetic_sites": [6], "num_unique_magnetic_sites": [2], "theoretical": [false], "total_magnetization": [0.4206495], "total_magnetization_normalized_formula_units": [0.07010825], "total_magnetization_normalized_vol": [0.002156454], "uncorrected_energy_per_atom": [-31.22486], "universal_anisotropy": [0.102], "volume": [195.0654]}