{"includesElement": ["", "P", "Si"], "includesElement___series_id": [1, 5], "includesElement__abundance_crust": [1050.0, 282000.0], "includesElement__atomic_number": [15, 14], "includesElement__atomic_radius": [100.0, 110.0], "includesElement__atomic_radius_rahm": [223.0, 232.0], "includesElement__atomic_volume": [17.0, 12.1], "includesElement__atomic_weight": [30.97376, 28.085], "includesElement__covalent_radius_cordero": [107.0, 111.0], "includesElement__covalent_radius_pyykko": [111.0, 116.0], "includesElement__covalent_radius_pyykko_double": [102.0, 107.0], "includesElement__covalent_radius_pyykko_triple": [94.0, 102.0], "includesElement__density": [1.823, 2.3296], "includesElement__dipole_polarizability": [25.0, 37.3], "includesElement__dipole_polarizability_unc": [1.0, 0.7], "includesElement__discovery_year": [1669, 1824], "includesElement__electron_affinity": [0.746607, 1.389521], "includesElement__electronegativity_allred-rochow": [0.0003895788, 0.0003084126], "includesElement__electronegativity_cottrell-sutton": [0.2079501, 0.1891451], "includesElement__electronegativity_ghosh": [0.206931, 0.178503], "includesElement__electronegativity_gordy": [0.04324324, 0.03577586], "includesElement__electronegativity_mulliken": [5.616646, 4.770602], "includesElement__electronegativity_nagle": [0.5848035, 0.4750986], "includesElement__electronegativity_pauling": [2.19, 1.9], "includesElement__electronegativity_sanderson": [0.4510269, 0.3468158], "includesElement__en_ghosh": [0.206931, 0.178503], "includesElement__en_pauling": [2.19, 1.9], "includesElement__evaporation_heat": [49.8, 383.0], "includesElement__fusion_heat": [2.51, 50.6], "includesElement__glawe_number": [89, 85], "includesElement__group_id": [15, 14], "includesElement__heat_of_formation": [316.5, 450.0], "includesElement__is_radioactive": [false], "includesElement__lattice_constant": [7.17, 5.43], "includesElement__mendeleev_number": [94, 88], "includesElement__molar_heat_capacity": [23.824, 19.99], "includesElement__period": [3], "includesElement__pettifor_number": [90, 85], "includesElement__specific_heat_capacity": [0.769, 0.712], "includesElement__vdw_radius": [180.0, 210.0], "includesElement__vdw_radius_alvarez": [190.0, 219.0], "includesElement__vdw_radius_mm3": [222.0, 229.0], "includesElement__vdw_radius_uff": [414.7, 429.5], "includesElement__abundance_sea": [0.06, 2.2], "includesElement__atomic_weight_uncertainty": [5e-09], "includesElement__c6_gb": [187.0, 308.0], "includesElement__electronegativity_allen": [13.33, 11.33], "includesElement__en_allen": [13.33, 11.33], "includesElement__metallic_radius": [110.0, 117.0], "includesElement__metallic_radius_c12": [128.0, 138.0], "includesElement__vdw_radius_batsanov": [195.0, 210.0], "includesElement__c6": [185.0, 305.0], "includesElement__is_monoisotopic": [true], "includesElement__vdw_radius_dreiding": [415.0, 427.0], "includesElement__gas_basicity": [604.8, 814.1], "includesElement__proton_affinity": [626.8, 837.0], "includesElement__vdw_radius_bondi": [180.0, 210.0], "includesElement__covalent_radius_bragg": [117.0], "includesElement__thermal_conductivity": [149.0], "formula": ["P8Si4"], "spacegroup": ["205"], "thermalConductivity": [7.77965], "icsd": ["185351"], "band_gap": [0.0], "density": [3.194263], "density_atomic": [15.60124], "deprecated": [false], "efermi": [8.413883], "energy_above_hull": [0.01529028], "energy_per_atom": [-9.053073], "formation_energy_per_atom": [-0.1271004], "homogeneous_poisson": [0.197], "is_gap_direct": [false], "is_magnetic": [false], "is_metal": [true], "is_stable": [false], "nelements": [2], "nsites": [12], "num_magnetic_sites": [0], "num_unique_magnetic_sites": [0], "theoretical": [false], "total_magnetization": [0.0], "total_magnetization_normalized_formula_units": [0.0], "total_magnetization_normalized_vol": [0.0], "uncorrected_energy_per_atom": [-9.053073], "universal_anisotropy": [0.092], "volume": [187.2148]}