{"includesElement": ["", "Sc", "Ru"], "includesElement___series_id": [8], "includesElement__abundance_crust": [22.0, 0.001], "includesElement__atomic_number": [21, 44], "includesElement__atomic_radius": [160.0, 130.0], "includesElement__atomic_radius_rahm": [263.0, 237.0], "includesElement__atomic_volume": [15.0, 8.3], "includesElement__atomic_weight": [44.95591, 101.07], "includesElement__covalent_radius_cordero": [170.0, 146.0], "includesElement__covalent_radius_pyykko": [148.0, 125.0], "includesElement__covalent_radius_pyykko_double": [116.0, 114.0], "includesElement__covalent_radius_pyykko_triple": [114.0, 103.0], "includesElement__density": [2.99, 12.1], "includesElement__dipole_polarizability": [97.0, 72.0], "includesElement__dipole_polarizability_unc": [10.0], "includesElement__discovery_year": [1879, 1844], "includesElement__electron_affinity": [0.188, 1.05], "includesElement__electronegativity_allred-rochow": [0.0001369613, 0.000208], "includesElement__electronegativity_cottrell-sutton": [0.1423737, 0.1612452], "includesElement__electronegativity_ghosh": [0.1193833, 0.1376494], "includesElement__electronegativity_gordy": [0.02027027, 0.026], "includesElement__electronegativity_mulliken": [3.374745, 4.20525], "includesElement__electronegativity_nagle": [0.3138941, 0.4807499], "includesElement__electronegativity_pauling": [1.36, 2.2], "includesElement__electronegativity_sanderson": [0.3038674, 0.9579373], "includesElement__en_ghosh": [0.1193833, 0.1376494], "includesElement__en_pauling": [1.36, 2.2], "includesElement__evaporation_heat": [332.7], "includesElement__fusion_heat": [15.8, 25.5], "includesElement__glawe_number": [48, 61], "includesElement__group_id": [3, 8], "includesElement__heat_of_formation": [377.8, 650.6], "includesElement__is_radioactive": [false], "includesElement__lattice_constant": [3.31, 2.7], "includesElement__mendeleev_number": [11, 60], "includesElement__molar_heat_capacity": [25.52, 24.06], "includesElement__period": [4, 5], "includesElement__pettifor_number": [20, 63], "includesElement__specific_heat_capacity": [0.568, 0.238], "includesElement__vdw_radius": [215.0, 213.0], "includesElement__vdw_radius_alvarez": [258.0, 246.0], "includesElement__vdw_radius_mm3": [261.0, 234.0], "includesElement__vdw_radius_uff": [329.5, 296.3], "includesElement__abundance_sea": [6e-07, 7e-07], "includesElement__atomic_weight_uncertainty": [5e-06, 0.02], "includesElement__c6_gb": [1570.0, 809.0], "includesElement__electronegativity_allen": [7.042, 9.1], "includesElement__en_allen": [7.042, 9.1], "includesElement__metallic_radius": [144.0, 125.0], "includesElement__metallic_radius_c12": [162.0, 134.0], "includesElement__thermal_conductivity": [15.8, 117.0], "includesElement__vdw_radius_batsanov": [230.0, 205.0], "includesElement__c6": [1383.0], "includesElement__is_monoisotopic": [true], "includesElement__gas_basicity": [892.0, 751.4], "includesElement__proton_affinity": [914.0, 774.0], "formula": ["Ru1Sc1"], "spacegroup": ["221"], "thermalConductivity": [12.6336], "icsd": ["105988"], "band_gap": [0.0], "density": [7.410138], "density_atomic": [16.36148], "deprecated": [false], "efermi": [5.969805], "energy_above_hull": [0.0], "energy_per_atom": [-8.346511], "formation_energy_per_atom": [-0.5430755], "homogeneous_poisson": [0.334], "is_gap_direct": [false], "is_magnetic": [false], "is_metal": [true], "is_stable": [true], "nelements": [2], "nsites": [2], "num_magnetic_sites": [0], "num_unique_magnetic_sites": [0], "theoretical": [false], "total_magnetization": [2e-07], "total_magnetization_normalized_formula_units": [2e-07], "total_magnetization_normalized_vol": [6.111915e-09], "uncorrected_energy_per_atom": [-18.95589], "universal_anisotropy": [0.312], "volume": [32.72297], "equilibrium_reaction_energy_per_atom": [-0.1470016]}