{"includesElement": ["", "N", "B"], "includesElement___series_id": [1, 5], "includesElement__abundance_crust": [19.0, 10.0], "includesElement__atomic_number": [7, 5], "includesElement__atomic_radius": [65.0, 85.0], "includesElement__atomic_radius_rahm": [179.0, 205.0], "includesElement__atomic_volume": [17.3, 4.6], "includesElement__atomic_weight": [14.007, 10.81], "includesElement__covalent_radius_cordero": [71.0, 84.0], "includesElement__covalent_radius_pyykko": [71.0, 85.0], "includesElement__covalent_radius_pyykko_double": [60.0, 78.0], "includesElement__covalent_radius_pyykko_triple": [54.0, 73.0], "includesElement__density": [0.001145, 2.34], "includesElement__dipole_polarizability": [7.4, 20.5], "includesElement__dipole_polarizability_unc": [0.2, 0.1], "includesElement__discovery_year": [1772, 1808], "includesElement__electron_affinity": [-1.4, 0.279723], "includesElement__electronegativity_allred-rochow": [0.000773656, 0.0003598616], "includesElement__electronegativity_cottrell-sutton": [0.2343706, 0.1748949], "includesElement__electronegativity_ghosh": [0.26493, 0.184886], "includesElement__electronegativity_gordy": [0.05492958, 0.03058824], "includesElement__electronegativity_mulliken": [6.567065, 4.288871], "includesElement__electronegativity_nagle": [0.8774979, 0.5269739], "includesElement__electronegativity_pauling": [3.04, 2.04], "includesElement__electronegativity_sanderson": [0.577482, 0.2546274], "includesElement__en_ghosh": [0.26493, 0.184886], "includesElement__en_pauling": [3.04, 2.04], "includesElement__glawe_number": [88, 86], "includesElement__group_id": [15, 13], "includesElement__heat_of_formation": [472.44, 565.0], "includesElement__is_radioactive": [false], "includesElement__lattice_constant": [4.039, 8.73], "includesElement__mendeleev_number": [93, 81], "includesElement__molar_heat_capacity": [29.124, 11.087], "includesElement__period": [2], "includesElement__pettifor_number": [100, 86], "includesElement__specific_heat_capacity": [1.04, 1.026], "includesElement__vdw_radius": [155.0, 192.0], "includesElement__vdw_radius_alvarez": [166.0, 191.0], "includesElement__vdw_radius_mm3": [193.0, 215.0], "includesElement__vdw_radius_uff": [366.0, 408.3], "includesElement__abundance_sea": [0.5, 4.44], "includesElement__c6_gb": [25.7, 99.2], "includesElement__covalent_radius_bragg": [65.0], "includesElement__electronegativity_allen": [18.13, 12.13], "includesElement__en_allen": [18.13, 12.13], "includesElement__metallic_radius_c12": [53.0, 98.0], "includesElement__thermal_conductivity": [0.026, 27.4], "includesElement__vdw_radius_batsanov": [160.0, 180.0], "includesElement__c6": [24.2, 99.5], "includesElement__vdw_radius_dreiding": [366.21, 402.0], "includesElement__gas_basicity": [318.7], "includesElement__proton_affinity": [342.2], "includesElement__vdw_radius_bondi": [155.0], "includesElement__vdw_radius_rt": [164.0], "includesElement__evaporation_heat": [504.5], "includesElement__fusion_heat": [23.6], "includesElement__metallic_radius": [80.0], "includesElement__vdw_radius_truhlar": [192.0], "formula": ["B1N1", "BN"], "mp_id": ["mp-1639"], "spacegroup": ["216"], "thermalConductivity": [281.785, 1284.888, 1914.272], "icsd": ["162874"], "band_gap": [4.4506], "density": [3.457694], "density_atomic": [5.959285], "deprecated": [false], "efermi": [7.494457], "energy_above_hull": [0.07735397], "energy_per_atom": [-9.573177], "formation_energy_per_atom": [-1.335625], "homogeneous_poisson": [0.121], "is_gap_direct": [false], "is_magnetic": [false], "is_metal": [false], "is_stable": [false], "nelements": [2], "nsites": [2], "num_magnetic_sites": [0], "num_unique_magnetic_sites": [0], "theoretical": [false], "total_magnetization": [0.0006126], "total_magnetization_normalized_formula_units": [0.0006126], "total_magnetization_normalized_vol": [5.139879e-05], "uncorrected_energy_per_atom": [-8.711469], "universal_anisotropy": [0.159], "volume": [11.91857], "cbm": [11.8364], "e_electronic": [4.616613], "e_ionic": [2.362244], "e_total": [6.978858], "n": [2.148631], "vbm": [7.3858], "e_ij_max": [0.89676]}