{"includesElement": ["", "Mg", "F"], "includesElement___series_id": [4, 6], "includesElement__abundance_crust": [23300.0, 585.0], "includesElement__atomic_number": [12, 9], "includesElement__atomic_radius": [150.0, 50.0], "includesElement__atomic_radius_rahm": [240.0, 163.0], "includesElement__atomic_volume": [14.0, 17.1], "includesElement__atomic_weight": [24.305, 18.9984], "includesElement__covalent_radius_cordero": [141.0, 57.0], "includesElement__covalent_radius_pyykko": [139.0, 64.0], "includesElement__covalent_radius_pyykko_double": [132.0, 59.0], "includesElement__covalent_radius_pyykko_triple": [127.0, 53.0], "includesElement__density": [1.74, 0.001553], "includesElement__dipole_polarizability": [71.2, 3.74], "includesElement__dipole_polarizability_unc": [0.4, 0.08], "includesElement__discovery_year": [1808, 1886], "includesElement__electronegativity_allred-rochow": [0.0001475079, 0.001269531], "includesElement__electronegativity_cottrell-sutton": [0.1431908, 0.2850439], "includesElement__electronegativity_ghosh": [0.121644, 0.344443], "includesElement__electronegativity_gordy": [0.0205036, 0.08125], "includesElement__electronegativity_mulliken": [3.823117, 10.412], "includesElement__electronegativity_nagle": [0.3039835, 1.232373], "includesElement__electronegativity_pauling": [1.31, 3.98], "includesElement__electronegativity_sanderson": [0.1524211, 1.017681], "includesElement__en_ghosh": [0.121644, 0.344443], "includesElement__en_pauling": [1.31, 3.98], "includesElement__evaporation_heat": [131.8, 6.54], "includesElement__fusion_heat": [9.2, 0.51], "includesElement__glawe_number": [73, 102], "includesElement__group_id": [2, 17], "includesElement__heat_of_formation": [147.1, 79.335], "includesElement__is_radioactive": [false], "includesElement__lattice_constant": [3.21], "includesElement__mendeleev_number": [76, 106], "includesElement__molar_heat_capacity": [24.869, 31.304], "includesElement__period": [3, 2], "includesElement__pettifor_number": [73, 102], "includesElement__specific_heat_capacity": [1.023, 0.824], "includesElement__vdw_radius": [173.0, 147.0], "includesElement__vdw_radius_alvarez": [251.0, 146.0], "includesElement__vdw_radius_mm3": [243.0, 171.0], "includesElement__vdw_radius_uff": [302.1, 336.4], "includesElement__abundance_sea": [1290.0, 1.3], "includesElement__c6_gb": [629.0, 10.2], "includesElement__covalent_radius_bragg": [142.0, 67.0], "includesElement__electronegativity_allen": [7.646, 24.8], "includesElement__en_allen": [7.646, 24.8], "includesElement__metallic_radius": [136.0], "includesElement__metallic_radius_c12": [160.0], "includesElement__thermal_conductivity": [156.0, 0.028], "includesElement__vdw_radius_batsanov": [220.0, 150.0], "includesElement__c6": [626.0, 9.52], "includesElement__gas_basicity": [797.3, 315.1], "includesElement__proton_affinity": [819.6, 340.1], "includesElement__vdw_radius_bondi": [173.0, 147.0], "includesElement__electron_affinity": [3.40119], "includesElement__atomic_weight_uncertainty": [6e-09], "includesElement__is_monoisotopic": [true], "includesElement__vdw_radius_dreiding": [347.2], "includesElement__vdw_radius_rt": [146.0], "formula": ["F8Mg4"], "spacegroup": ["205"], "thermalConductivity": [4.38928], "icsd": ["94282"], "band_gap": [6.7193], "density": [3.286158], "density_atomic": [10.49398], "deprecated": [false], "efermi": [0.01460294], "energy_above_hull": [0.06607835], "energy_per_atom": [-7.231749], "formation_energy_per_atom": [-3.759545], "homogeneous_poisson": [0.271], "is_gap_direct": [true], "is_magnetic": [false], "is_metal": [false], "is_stable": [false], "nelements": [2], "nsites": [12], "num_magnetic_sites": [0], "num_unique_magnetic_sites": [0], "theoretical": [false], "total_magnetization": [0.0], "total_magnetization_normalized_formula_units": [0.0], "total_magnetization_normalized_vol": [0.0], "uncorrected_energy_per_atom": [-5.263081], "universal_anisotropy": [0.009], "volume": [125.9277], "cbm": [6.5812], "vbm": [-0.1381]}