{"includesElement": ["", "Ni", "P"], "includesElement___series_id": [8, 1], "includesElement__abundance_crust": [84.0, 1050.0], "includesElement__atomic_number": [28, 15], "includesElement__atomic_radius": [135.0, 100.0], "includesElement__atomic_radius_rahm": [229.0, 223.0], "includesElement__atomic_volume": [6.6, 17.0], "includesElement__atomic_weight": [58.6934, 30.97376], "includesElement__covalent_radius_cordero": [124.0, 107.0], "includesElement__covalent_radius_pyykko": [110.0, 111.0], "includesElement__covalent_radius_pyykko_double": [101.0, 102.0], "includesElement__covalent_radius_pyykko_triple": [101.0, 94.0], "includesElement__density": [8.9, 1.823], "includesElement__dipole_polarizability": [49.0, 25.0], "includesElement__dipole_polarizability_unc": [3.0, 1.0], "includesElement__discovery_year": [1751, 1669], "includesElement__electron_affinity": [1.156, 0.746607], "includesElement__electronegativity_allred-rochow": [0.0003347107, 0.0003895788], "includesElement__electronegativity_cottrell-sutton": [0.1918806, 0.2079501], "includesElement__electronegativity_ghosh": [0.1472068, 0.206931], "includesElement__electronegativity_gordy": [0.03681818, 0.04324324], "includesElement__electronegativity_mulliken": [4.397939, 5.616646], "includesElement__electronegativity_nagle": [0.588755, 0.5848035], "includesElement__electronegativity_pauling": [1.91, 2.19], "includesElement__electronegativity_sanderson": [0.937704, 0.4510269], "includesElement__en_ghosh": [0.1472068, 0.206931], "includesElement__en_pauling": [1.91, 2.19], "includesElement__evaporation_heat": [378.6, 49.8], "includesElement__fusion_heat": [17.61, 2.51], "includesElement__glawe_number": [69, 89], "includesElement__group_id": [10, 15], "includesElement__heat_of_formation": [430.1, 316.5], "includesElement__is_radioactive": [false], "includesElement__lattice_constant": [3.52, 7.17], "includesElement__mendeleev_number": [67, 94], "includesElement__molar_heat_capacity": [26.07, 23.824], "includesElement__period": [4, 3], "includesElement__pettifor_number": [67, 90], "includesElement__specific_heat_capacity": [0.444, 0.769], "includesElement__vdw_radius": [197.0, 180.0], "includesElement__vdw_radius_alvarez": [240.0, 190.0], "includesElement__vdw_radius_mm3": [222.0], "includesElement__vdw_radius_uff": [283.4, 414.7], "includesElement__abundance_sea": [0.00056, 0.06], "includesElement__atomic_weight_uncertainty": [0.0004, 5e-09], "includesElement__c6_gb": [393.0, 187.0], "includesElement__covalent_radius_bragg": [135.0], "includesElement__electronegativity_allen": [11.13, 13.33], "includesElement__en_allen": [11.13, 13.33], "includesElement__metallic_radius": [115.0, 110.0], "includesElement__metallic_radius_c12": [124.0, 128.0], "includesElement__thermal_conductivity": [90.9], "includesElement__vdw_radius_batsanov": [200.0, 195.0], "includesElement__c6": [373.0, 185.0], "includesElement__gas_basicity": [714.1, 604.8], "includesElement__proton_affinity": [737.0, 626.8], "includesElement__is_monoisotopic": [true], "includesElement__vdw_radius_dreiding": [415.0], "includesElement__vdw_radius_bondi": [180.0], "formula": ["Ni4P8"], "spacegroup": ["205"], "thermalConductivity": [6.97147], "icsd": ["22221"], "band_gap": [0.0], "density": [4.982739], "density_atomic": [13.40153], "deprecated": [false], "efermi": [8.555519], "energy_above_hull": [0.0], "energy_per_atom": [-10.40321], "formation_energy_per_atom": [-0.4079187], "homogeneous_poisson": [0.202], "is_gap_direct": [false], "is_magnetic": [false], "is_metal": [true], "is_stable": [true], "nelements": [2], "nsites": [12], "num_magnetic_sites": [0], "num_unique_magnetic_sites": [0], "theoretical": [false], "total_magnetization": [0.0], "total_magnetization_normalized_formula_units": [0.0], "total_magnetization_normalized_vol": [0.0], "uncorrected_energy_per_atom": [-10.40321], "universal_anisotropy": [0.665], "volume": [160.8183], "equilibrium_reaction_energy_per_atom": [-0.0465302]}