{"includesElement": ["", "N", "In"], "includesElement___series_id": [1, 7], "includesElement__abundance_crust": [19.0, 0.25], "includesElement__atomic_number": [7, 49], "includesElement__atomic_radius": [65.0, 155.0], "includesElement__atomic_radius_rahm": [179.0, 246.0], "includesElement__atomic_volume": [17.3, 15.7], "includesElement__atomic_weight": [14.007, 114.818], "includesElement__covalent_radius_cordero": [71.0, 142.0], "includesElement__covalent_radius_pyykko": [71.0, 142.0], "includesElement__covalent_radius_pyykko_double": [60.0, 136.0], "includesElement__covalent_radius_pyykko_triple": [54.0, 146.0], "includesElement__density": [0.001145, 7.31], "includesElement__dipole_polarizability": [7.4, 65.0], "includesElement__dipole_polarizability_unc": [0.2, 4.0], "includesElement__discovery_year": [1772, 1863], "includesElement__electron_affinity": [-1.4, 0.3], "includesElement__electronegativity_allred-rochow": [0.000773656, 0.0002479667], "includesElement__electronegativity_cottrell-sutton": [0.2343706, 0.1876467], "includesElement__electronegativity_ghosh": [0.26493, 0.16423], "includesElement__electronegativity_gordy": [0.05492958, 0.03521127], "includesElement__electronegativity_mulliken": [6.567065, 3.043178], "includesElement__electronegativity_nagle": [0.8774979, 0.3587038], "includesElement__electronegativity_pauling": [3.04, 1.78], "includesElement__electronegativity_sanderson": [0.577482, 0.7172747], "includesElement__en_ghosh": [0.26493, 0.16423], "includesElement__en_pauling": [3.04, 1.78], "includesElement__glawe_number": [88, 80], "includesElement__group_id": [15, 13], "includesElement__heat_of_formation": [472.44, 243.0], "includesElement__is_radioactive": [false], "includesElement__lattice_constant": [4.039, 4.59], "includesElement__mendeleev_number": [93, 84], "includesElement__molar_heat_capacity": [29.124, 26.74], "includesElement__period": [2, 5], "includesElement__pettifor_number": [100, 79], "includesElement__specific_heat_capacity": [1.04, 0.233], "includesElement__vdw_radius": [155.0, 193.0], "includesElement__vdw_radius_alvarez": [166.0, 243.0], "includesElement__vdw_radius_mm3": [193.0, 264.0], "includesElement__vdw_radius_uff": [366.0, 446.3], "includesElement__abundance_sea": [0.5, 0.02], "includesElement__c6_gb": [25.7, 643.0], "includesElement__covalent_radius_bragg": [65.0], "includesElement__electronegativity_allen": [18.13, 9.793], "includesElement__en_allen": [18.13, 9.793], "includesElement__metallic_radius_c12": [53.0, 158.0], "includesElement__thermal_conductivity": [0.026, 81.8], "includesElement__vdw_radius_batsanov": [160.0, 220.0], "includesElement__c6": [24.2, 779.0], "includesElement__vdw_radius_dreiding": [366.21, 459.0], "includesElement__gas_basicity": [318.7], "includesElement__proton_affinity": [342.2], "includesElement__vdw_radius_bondi": [155.0, 193.0], "includesElement__vdw_radius_rt": [164.0], "includesElement__evaporation_heat": [225.1], "includesElement__fusion_heat": [3.24], "includesElement__atomic_weight_uncertainty": [0.001], "includesElement__metallic_radius": [142.0], "formula": ["In1N1", "InN"], "mp_id": ["mp-20411"], "spacegroup": ["216"], "thermalConductivity": [10.9721, 100.9502, 114.9851], "icsd": ["157514"], "band_gap": [0.0], "density": [6.823294], "density_atomic": [15.6756], "deprecated": [false], "efermi": [6.052928], "energy_above_hull": [0.01331642], "energy_per_atom": [-15.95805], "formation_energy_per_atom": [-0.1043842], "is_gap_direct": [false], "is_magnetic": [false], "is_metal": [true], "is_stable": [false], "nelements": [2], "nsites": [2], "num_magnetic_sites": [0], "num_unique_magnetic_sites": [0], "theoretical": [true], "total_magnetization": [0.0], "total_magnetization_normalized_formula_units": [0.0], "total_magnetization_normalized_vol": [0.0], "uncorrected_energy_per_atom": [-15.95805], "volume": [31.3512]}