{"includesElement": ["", "O", "Ta"], "includesElement___series_id": [1, 8], "includesElement__abundance_crust": [461000.0, 2.0], "includesElement__atomic_number": [8, 73], "includesElement__atomic_radius": [60.0, 145.0], "includesElement__atomic_radius_rahm": [171.0, 258.0], "includesElement__atomic_volume": [14.0, 10.9], "includesElement__atomic_weight": [15.999, 180.9479], "includesElement__covalent_radius_cordero": [66.0, 170.0], "includesElement__covalent_radius_pyykko": [63.0, 146.0], "includesElement__covalent_radius_pyykko_double": [57.0, 126.0], "includesElement__covalent_radius_pyykko_triple": [53.0, 119.0], "includesElement__density": [0.001308, 16.4], "includesElement__dipole_polarizability": [5.3, 74.0], "includesElement__dipole_polarizability_unc": [0.2, 20.0], "includesElement__discovery_year": [1774, 1802], "includesElement__electron_affinity": [1.461113, 0.322], "includesElement__electronegativity_allred-rochow": [0.001146384, 0.0001548133], "includesElement__electronegativity_cottrell-sutton": [0.2687419, 0.1503421], "includesElement__electronegativity_ghosh": [0.304575, 0.234581], "includesElement__electronegativity_gordy": [0.07222222, 0.02260274], "includesElement__electronegativity_mulliken": [7.539584, 3.935785], "includesElement__electronegativity_nagle": [1.042218, 0.4072985], "includesElement__electronegativity_pauling": [3.44, 1.5], "includesElement__electronegativity_sanderson": [0.9416494, 0.8358832], "includesElement__en_ghosh": [0.304575, 0.234581], "includesElement__en_pauling": [3.44, 1.5], "includesElement__glawe_number": [97, 52], "includesElement__group_id": [16, 5], "includesElement__heat_of_formation": [249.229, 782.0], "includesElement__is_radioactive": [false], "includesElement__lattice_constant": [6.83, 3.31], "includesElement__mendeleev_number": [99, 49], "includesElement__molar_heat_capacity": [29.378, 25.36], "includesElement__period": [2, 6], "includesElement__pettifor_number": [101, 53], "includesElement__specific_heat_capacity": [0.918, 0.14], "includesElement__vdw_radius": [152.0, 222.0], "includesElement__vdw_radius_alvarez": [150.0, 253.0], "includesElement__vdw_radius_mm3": [182.0, 243.0], "includesElement__vdw_radius_uff": [350.0, 317.0], "includesElement__abundance_sea": [857000.0, 2e-06], "includesElement__c6_gb": [16.7, 887.0], "includesElement__covalent_radius_bragg": [65.0], "includesElement__electronegativity_allen": [21.36, 7.93], "includesElement__en_allen": [21.36, 7.93], "includesElement__thermal_conductivity": [0.027, 57.5], "includesElement__vdw_radius_batsanov": [155.0, 220.0], "includesElement__c6": [15.6], "includesElement__vdw_radius_dreiding": [340.46], "includesElement__gas_basicity": [459.6], "includesElement__proton_affinity": [485.2], "includesElement__vdw_radius_bondi": [152.0], "includesElement__vdw_radius_rt": [158.0], "includesElement__evaporation_heat": [758.0], "includesElement__fusion_heat": [24.7], "includesElement__atomic_weight_uncertainty": [2e-05], "includesElement__metallic_radius": [134.0], "includesElement__metallic_radius_c12": [146.0], "formula": ["O4Ta2"], "spacegroup": ["136"], "thermalConductivity": [14.1696], "icsd": ["603572"], "band_gap": [0.0], "density": [9.807658], "density_atomic": [12.01803], "deprecated": [false], "efermi": [5.107979], "energy_above_hull": [0.07748121], "energy_per_atom": [-22.97186], "formation_energy_per_atom": [-2.800819], "homogeneous_poisson": [0.306], "is_gap_direct": [false], "is_magnetic": [false], "is_metal": [true], "is_stable": [false], "nelements": [2], "nsites": [6], "num_magnetic_sites": [0], "num_unique_magnetic_sites": [0], "theoretical": [false], "total_magnetization": [0.003304], "total_magnetization_normalized_formula_units": [0.001652], "total_magnetization_normalized_vol": [4.582003e-05], "uncorrected_energy_per_atom": [-9.828953], "universal_anisotropy": [1.336], "volume": [72.1082]}