{"includesElement": ["", "Ho", "Te"], "includesElement___series_id": [9, 5], "includesElement__abundance_crust": [1.3, 0.001], "includesElement__atomic_number": [67, 52], "includesElement__atomic_radius": [175.0, 140.0], "includesElement__atomic_radius_rahm": [273.0, 242.0], "includesElement__atomic_volume": [18.7, 20.5], "includesElement__atomic_weight": [164.9303, 127.6], "includesElement__covalent_radius_cordero": [192.0, 138.0], "includesElement__covalent_radius_pyykko": [166.0, 136.0], "includesElement__covalent_radius_pyykko_double": [133.0, 128.0], "includesElement__density": [8.8, 6.232], "includesElement__dipole_polarizability": [156.0, 38.0], "includesElement__dipole_polarizability_unc": [10.0, 4.0], "includesElement__discovery_year": [1878, 1782], "includesElement__electronegativity_allred-rochow": [0.0001034258, 0.0003757569], "includesElement__electronegativity_cottrell-sutton": [0.1310293, 0.2260596], "includesElement__electronegativity_ghosh": [0.207795, 0.2056992], "includesElement__electronegativity_gordy": [0.01716867, 0.05110294], "includesElement__electronegativity_mulliken": [3.01075, 5.490268], "includesElement__electronegativity_nagle": [0.4367902, 0.5404919], "includesElement__electronegativity_pauling": [1.23, 2.1], "includesElement__electronegativity_sanderson": [0.5434919, 0.8622506], "includesElement__en_ghosh": [0.207795, 0.2056992], "includesElement__en_pauling": [1.23, 2.1], "includesElement__evaporation_heat": [301.0, 49.8], "includesElement__glawe_number": [23, 94], "includesElement__heat_of_formation": [300.6, 196.6], "includesElement__is_radioactive": [false], "includesElement__lattice_constant": [3.58, 4.45], "includesElement__mendeleev_number": [33, 102], "includesElement__molar_heat_capacity": [27.15, 25.73], "includesElement__period": [6, 5], "includesElement__pettifor_number": [24, 92], "includesElement__specific_heat_capacity": [0.165, 0.202], "includesElement__vdw_radius": [230.0, 206.0], "includesElement__vdw_radius_alvarez": [281.0, 199.0], "includesElement__vdw_radius_mm3": [267.0, 244.0], "includesElement__vdw_radius_uff": [340.9, 447.0], "includesElement__abundance_sea": [2.2e-07], "includesElement__atomic_weight_uncertainty": [2e-05, 0.03], "includesElement__c6_gb": [2280.0, 471.0], "includesElement__is_monoisotopic": [true], "includesElement__covalent_radius_pyykko_triple": [121.0], "includesElement__electron_affinity": [1.970876], "includesElement__fusion_heat": [17.91], "includesElement__group_id": [16], "includesElement__covalent_radius_bragg": [133.0], "includesElement__electronegativity_allen": [12.76], "includesElement__en_allen": [12.76], "includesElement__metallic_radius": [137.0], "includesElement__metallic_radius_c12": [160.0], "includesElement__thermal_conductivity": [14.3], "includesElement__vdw_radius_batsanov": [210.0], "includesElement__c6": [445.0], "includesElement__vdw_radius_dreiding": [423.0], "includesElement__vdw_radius_bondi": [206.0], "formula": ["Ho1Te1"], "spacegroup": ["225"], "thermalConductivity": [3.6382], "icsd": ["43548"], "band_gap": [0.0], "density": [8.512351], "density_atomic": [28.53254], "deprecated": [false], "efermi": [6.551561], "energy_above_hull": [0.0], "energy_per_atom": [-30.60097], "formation_energy_per_atom": [-1.451688], "homogeneous_poisson": [0.356], "is_gap_direct": [false], "is_magnetic": [false], "is_metal": [true], "is_stable": [true], "nelements": [2], "nsites": [2], "num_magnetic_sites": [0], "num_unique_magnetic_sites": [0], "theoretical": [false], "total_magnetization": [1.2e-06], "total_magnetization_normalized_formula_units": [1.2e-06], "total_magnetization_normalized_vol": [2.102862e-08], "uncorrected_energy_per_atom": [-30.60097], "universal_anisotropy": [14.78], "volume": [57.06508], "equilibrium_reaction_energy_per_atom": [-0.06364651]}