{"includesElement": ["", "Ce", "Os"], "includesElement___series_id": [9, 8], "includesElement__abundance_crust": [66.5, 0.0015], "includesElement__atomic_number": [58, 76], "includesElement__atomic_radius": [185.0, 130.0], "includesElement__atomic_radius_rahm": [282.0, 244.0], "includesElement__atomic_volume": [21.0, 8.43], "includesElement__atomic_weight": [140.116, 190.23], "includesElement__covalent_radius_cordero": [204.0, 144.0], "includesElement__covalent_radius_pyykko": [163.0, 129.0], "includesElement__covalent_radius_pyykko_double": [137.0, 116.0], "includesElement__covalent_radius_pyykko_triple": [131.0, 109.0], "includesElement__density": [6.77, 22.5872], "includesElement__dipole_polarizability": [205.0, 57.0], "includesElement__dipole_polarizability_unc": [20.0, 3.0], "includesElement__discovery_year": [1803, 1804], "includesElement__electron_affinity": [0.65, 1.1], "includesElement__electronegativity_allred-rochow": [0.0001129135, 0.000225347], "includesElement__electronegativity_cottrell-sutton": [0.1356647, 0.1704986], "includesElement__electronegativity_ghosh": [0.16761, 0.2479845], "includesElement__electronegativity_gordy": [0.01840491, 0.02906977], "includesElement__electronegativity_mulliken": [3.0943, 4.769115], "includesElement__electronegativity_nagle": [0.2692167, 0.5196828], "includesElement__electronegativity_pauling": [1.12, 2.2], "includesElement__electronegativity_sanderson": [0.5356179, 1.239276], "includesElement__en_ghosh": [0.16761, 0.2479845], "includesElement__en_pauling": [1.12, 2.2], "includesElement__evaporation_heat": [398.0, 738.0], "includesElement__fusion_heat": [5.2, 31.7], "includesElement__glawe_number": [31, 60], "includesElement__heat_of_formation": [420.1, 787.0], "includesElement__is_radioactive": [false], "includesElement__lattice_constant": [5.16, 2.74], "includesElement__mendeleev_number": [15, 61], "includesElement__molar_heat_capacity": [26.94, 24.7], "includesElement__period": [6], "includesElement__pettifor_number": [32, 62], "includesElement__specific_heat_capacity": [0.192, 0.13], "includesElement__vdw_radius": [242.0, 216.0], "includesElement__vdw_radius_alvarez": [288.0, 248.0], "includesElement__vdw_radius_mm3": [274.0, 235.0], "includesElement__vdw_radius_uff": [355.6, 312.0], "includesElement__abundance_sea": [1.2e-06], "includesElement__atomic_weight_uncertainty": [0.001, 0.03], "includesElement__c6_gb": [3480.0, 584.0], "includesElement__thermal_conductivity": [11.3], "includesElement__group_id": [8], "includesElement__electronegativity_allen": [9.78], "includesElement__en_allen": [9.78], "includesElement__metallic_radius": [126.0], "includesElement__metallic_radius_c12": [135.0], "includesElement__vdw_radius_batsanov": [200.0], "formula": ["Ce2Os4"], "spacegroup": ["227"], "thermalConductivity": [1.24337], "icsd": ["102241"], "band_gap": [0.0], "density": [15.72777], "density_atomic": [18.32082], "deprecated": [false], "efermi": [8.663065], "energy_above_hull": [0.01538722], "energy_per_atom": [-9.694943], "formation_energy_per_atom": [-0.2310482], "homogeneous_poisson": [0.423], "is_gap_direct": [false], "is_magnetic": [false], "is_metal": [true], "is_stable": [false], "nelements": [2], "nsites": [6], "num_magnetic_sites": [0], "num_unique_magnetic_sites": [0], "theoretical": [false], "total_magnetization": [1.89e-05], "total_magnetization_normalized_formula_units": [9.45e-06], "total_magnetization_normalized_vol": [1.719355e-07], "uncorrected_energy_per_atom": [-45.86308], "universal_anisotropy": [0.153], "volume": [109.9249]}