{"includesElement": ["", "Na", "F"], "includesElement___series_id": [3, 6], "includesElement__abundance_crust": [23600.0, 585.0], "includesElement__atomic_number": [11, 9], "includesElement__atomic_radius": [180.0, 50.0], "includesElement__atomic_radius_rahm": [225.0, 163.0], "includesElement__atomic_volume": [23.7, 17.1], "includesElement__atomic_weight": [22.98977, 18.9984], "includesElement__covalent_radius_cordero": [166.0, 57.0], "includesElement__covalent_radius_pyykko": [155.0, 64.0], "includesElement__covalent_radius_pyykko_double": [160.0, 59.0], "includesElement__density": [0.97, 0.001553], "includesElement__dipole_polarizability": [162.7, 3.74], "includesElement__dipole_polarizability_unc": [0.5, 0.08], "includesElement__discovery_year": [1807, 1886], "includesElement__electron_affinity": [0.547926, 3.40119], "includesElement__electronegativity_allred-rochow": [9.157128e-05, 0.001269531], "includesElement__electronegativity_cottrell-sutton": [0.1191367, 0.2850439], "includesElement__electronegativity_ghosh": [0.093214, 0.344443], "includesElement__electronegativity_gordy": [0.01419355, 0.08125], "includesElement__electronegativity_mulliken": [2.843501, 10.412], "includesElement__electronegativity_nagle": [0.1831769, 1.232373], "includesElement__electronegativity_pauling": [0.93, 3.98], "includesElement__electronegativity_sanderson": [0.09459764, 1.017681], "includesElement__en_ghosh": [0.093214, 0.344443], "includesElement__en_pauling": [0.93, 3.98], "includesElement__evaporation_heat": [97.9, 6.54], "includesElement__fusion_heat": [2.64, 0.51], "includesElement__glawe_number": [11, 102], "includesElement__group_id": [1, 17], "includesElement__heat_of_formation": [107.5, 79.335], "includesElement__is_radioactive": [false], "includesElement__lattice_constant": [4.23], "includesElement__mendeleev_number": [2, 106], "includesElement__molar_heat_capacity": [28.23, 31.304], "includesElement__period": [3, 2], "includesElement__pettifor_number": [11, 102], "includesElement__specific_heat_capacity": [1.228, 0.824], "includesElement__vdw_radius": [227.0, 147.0], "includesElement__vdw_radius_alvarez": [250.0, 146.0], "includesElement__vdw_radius_mm3": [270.0, 171.0], "includesElement__vdw_radius_uff": [298.3, 336.4], "includesElement__abundance_sea": [10800.0, 1.3], "includesElement__atomic_weight_uncertainty": [2e-08, 6e-09], "includesElement__c6_gb": [1570.0, 10.2], "includesElement__covalent_radius_bragg": [177.0, 67.0], "includesElement__electronegativity_allen": [5.14, 24.8], "includesElement__en_allen": [5.14, 24.8], "includesElement__metallic_radius": [157.0], "includesElement__metallic_radius_c12": [190.0], "includesElement__thermal_conductivity": [142.0, 0.028], "includesElement__vdw_radius_batsanov": [240.0, 150.0], "includesElement__c6": [1518.0, 9.52], "includesElement__is_monoisotopic": [true], "includesElement__vdw_radius_bondi": [227.0, 147.0], "includesElement__covalent_radius_pyykko_triple": [53.0], "includesElement__vdw_radius_dreiding": [347.2], "includesElement__gas_basicity": [315.1], "includesElement__proton_affinity": [340.1], "includesElement__vdw_radius_rt": [146.0], "formula": ["F1Na1", "FNa"], "mp_id": ["mp-682"], "spacegroup": ["225"], "thermalConductivity": [4.67066, 24.23017, 30.77288], "icsd": ["262837"], "band_gap": [6.204], "density": [2.91862], "density_atomic": [11.94451], "deprecated": [false], "efermi": [-2.091233], "energy_above_hull": [0.0], "energy_per_atom": [-6.305677], "formation_energy_per_atom": [-2.961759], "homogeneous_poisson": [0.232], "is_gap_direct": [true], "is_magnetic": [false], "is_metal": [false], "is_stable": [true], "nelements": [2], "nsites": [2], "num_magnetic_sites": [0], "num_unique_magnetic_sites": [0], "theoretical": [false], "total_magnetization": [0.0], "total_magnetization_normalized_formula_units": [0.0], "total_magnetization_normalized_vol": [0.0], "uncorrected_energy_per_atom": [-6.305677], "universal_anisotropy": [0.106], "volume": [23.88903], "cbm": [4.037], "e_electronic": [1.866975], "e_ionic": [3.593956], "e_total": [5.460931], "equilibrium_reaction_energy_per_atom": [-2.961759], "n": [1.366373], "vbm": [-2.167]}