{"includesElement": ["", "Sb", "Zr"], "includesElement___series_id": [5, 8], "includesElement__abundance_crust": [0.2, 165.0], "includesElement__atomic_number": [51, 40], "includesElement__atomic_radius": [145.0, 155.0], "includesElement__atomic_radius_rahm": [246.0, 269.0], "includesElement__atomic_volume": [18.4, 14.1], "includesElement__atomic_weight": [121.76, 91.224], "includesElement__covalent_radius_cordero": [139.0, 175.0], "includesElement__covalent_radius_pyykko": [140.0, 154.0], "includesElement__covalent_radius_pyykko_double": [133.0, 127.0], "includesElement__covalent_radius_pyykko_triple": [127.0, 121.0], "includesElement__density": [6.68, 6.52], "includesElement__dipole_polarizability": [43.0, 112.0], "includesElement__dipole_polarizability_unc": [2.0, 13.0], "includesElement__electron_affinity": [1.046, 0.426], "includesElement__electronegativity_allred-rochow": [0.0003214286, 0.0001328217], "includesElement__electronegativity_cottrell-sutton": [0.212132, 0.1430194], "includesElement__electronegativity_ghosh": [0.1918774, 0.1248887], "includesElement__electronegativity_gordy": [0.045, 0.02045455], "includesElement__electronegativity_mulliken": [4.827195, 3.52995], "includesElement__electronegativity_nagle": [0.4880907, 0.3293169], "includesElement__electronegativity_pauling": [2.05, 1.33], "includesElement__electronegativity_sanderson": [0.7762722, 0.4744467], "includesElement__en_ghosh": [0.1918774, 0.1248887], "includesElement__en_pauling": [2.05, 1.33], "includesElement__evaporation_heat": [195.2, 567.0], "includesElement__fusion_heat": [20.08, 19.2], "includesElement__glawe_number": [91, 49], "includesElement__group_id": [15, 4], "includesElement__heat_of_formation": [264.4, 610.0], "includesElement__is_radioactive": [false], "includesElement__lattice_constant": [4.51, 3.23], "includesElement__mendeleev_number": [96, 44], "includesElement__molar_heat_capacity": [25.23, 25.36], "includesElement__period": [5], "includesElement__pettifor_number": [88, 49], "includesElement__specific_heat_capacity": [0.207, 0.278], "includesElement__vdw_radius": [206.0, 223.0], "includesElement__vdw_radius_alvarez": [247.0, 252.0], "includesElement__vdw_radius_mm3": [252.0, 254.0], "includesElement__vdw_radius_uff": [442.0, 312.4], "includesElement__abundance_sea": [0.00024, 3e-05], "includesElement__atomic_weight_uncertainty": [0.001, 0.002], "includesElement__c6_gb": [504.0, 1360.0], "includesElement__covalent_radius_bragg": [140.0], "includesElement__electronegativity_allen": [11.74, 7.808], "includesElement__en_allen": [11.74, 7.808], "includesElement__metallic_radius": [139.0, 145.0], "includesElement__metallic_radius_c12": [166.0, 160.0], "includesElement__thermal_conductivity": [24.43, 22.7], "includesElement__vdw_radius_batsanov": [220.0, 230.0], "includesElement__c6": [492.0], "includesElement__vdw_radius_dreiding": [435.0], "includesElement__vdw_radius_truhlar": [206.0], "includesElement__discovery_year": [1789], "formula": ["Sb2Zr4"], "spacegroup": ["139"], "thermalConductivity": [3.25829], "icsd": ["107691"], "band_gap": [0.0], "density": [7.407667], "density_atomic": [22.73092], "deprecated": [false], "efermi": [6.57246], "energy_above_hull": [0.0], "energy_per_atom": [-24.47666], "formation_energy_per_atom": [-0.7413616], "homogeneous_poisson": [0.371], "is_gap_direct": [false], "is_magnetic": [false], "is_metal": [true], "is_stable": [true], "nelements": [2], "nsites": [6], "num_magnetic_sites": [0], "num_unique_magnetic_sites": [0], "theoretical": [false], "total_magnetization": [2.91e-05], "total_magnetization_normalized_formula_units": [1.455e-05], "total_magnetization_normalized_vol": [2.133658e-07], "uncorrected_energy_per_atom": [-24.47666], "universal_anisotropy": [2.401], "volume": [136.3855], "equilibrium_reaction_energy_per_atom": [-0.03180481]}