{"includesElement": ["", "S", "Rh"], "includesElement___series_id": [1, 8], "includesElement__abundance_crust": [350.0, 0.001], "includesElement__atomic_number": [16, 45], "includesElement__atomic_radius": [100.0, 135.0], "includesElement__atomic_radius_rahm": [214.0, 233.0], "includesElement__atomic_volume": [15.5, 8.3], "includesElement__atomic_weight": [32.06, 102.9055], "includesElement__covalent_radius_cordero": [105.0, 142.0], "includesElement__covalent_radius_pyykko": [103.0, 125.0], "includesElement__covalent_radius_pyykko_double": [94.0, 110.0], "includesElement__covalent_radius_pyykko_triple": [95.0, 106.0], "includesElement__density": [2.07, 12.4], "includesElement__dipole_polarizability": [19.4, 66.0], "includesElement__dipole_polarizability_unc": [0.1, 10.0], "includesElement__electron_affinity": [2.077104, 1.137], "includesElement__electronegativity_allred-rochow": [0.0005137148, 0.0002176], "includesElement__electronegativity_cottrell-sutton": [0.2300274, 0.1649242], "includesElement__electronegativity_ghosh": [0.23596, 0.1408379], "includesElement__electronegativity_gordy": [0.05291262, 0.0272], "includesElement__electronegativity_mulliken": [6.218557, 4.29795], "includesElement__electronegativity_nagle": [0.6762644, 0.5147142], "includesElement__electronegativity_pauling": [2.58, 2.28], "includesElement__electronegativity_sanderson": [0.6397251, 0.9761915], "includesElement__en_ghosh": [0.23596, 0.1408379], "includesElement__en_pauling": [2.58, 2.28], "includesElement__evaporation_heat": [10.5, 494.0], "includesElement__fusion_heat": [1.23, 21.8], "includesElement__glawe_number": [96, 63], "includesElement__group_id": [16, 9], "includesElement__heat_of_formation": [277.17, 556.0], "includesElement__is_radioactive": [false], "includesElement__lattice_constant": [10.47, 3.8], "includesElement__mendeleev_number": [100, 64], "includesElement__molar_heat_capacity": [22.7, 24.98], "includesElement__period": [3, 5], "includesElement__pettifor_number": [94, 66], "includesElement__specific_heat_capacity": [0.708, 0.243], "includesElement__vdw_radius": [180.0, 210.0], "includesElement__vdw_radius_alvarez": [189.0, 244.0], "includesElement__vdw_radius_mm3": [215.0, 234.0], "includesElement__vdw_radius_uff": [403.5, 292.9], "includesElement__abundance_sea": [905.0], "includesElement__c6_gb": [140.0, 708.0], "includesElement__covalent_radius_bragg": [102.0], "includesElement__electronegativity_allen": [15.31, 9.259], "includesElement__en_allen": [15.31, 9.259], "includesElement__metallic_radius": [104.0, 125.0], "includesElement__metallic_radius_c12": [127.0, 134.0], "includesElement__thermal_conductivity": [0.27, 150.0], "includesElement__vdw_radius_batsanov": [180.0, 200.0], "includesElement__c6": [134.0], "includesElement__vdw_radius_dreiding": [403.0], "includesElement__gas_basicity": [640.2, 745.4], "includesElement__proton_affinity": [664.3, 768.0], "includesElement__vdw_radius_bondi": [180.0], "includesElement__vdw_radius_rt": [181.0], "includesElement__discovery_year": [1803], "includesElement__atomic_weight_uncertainty": [2e-05], "includesElement__is_monoisotopic": [true], "formula": ["Rh4S8"], "spacegroup": ["205"], "thermalConductivity": [1.94679], "icsd": ["105914"], "band_gap": [0.0], "density": [5.89813], "density_atomic": [15.67553], "deprecated": [false], "efermi": [7.70502], "energy_above_hull": [0.04500881], "energy_per_atom": [-13.86627], "formation_energy_per_atom": [-0.4641957], "is_gap_direct": [false], "is_magnetic": [false], "is_metal": [true], "is_stable": [false], "nelements": [2], "nsites": [12], "num_magnetic_sites": [0], "num_unique_magnetic_sites": [0], "theoretical": [false], "total_magnetization": [0.0030793], "total_magnetization_normalized_formula_units": [0.000769825], "total_magnetization_normalized_vol": [1.636999e-05], "uncorrected_energy_per_atom": [-13.86627], "volume": [188.1064]}