{"includesElement": ["", "Sb", "La"], "includesElement___series_id": [5, 9], "includesElement__abundance_crust": [0.2, 39.0], "includesElement__atomic_number": [51, 57], "includesElement__atomic_radius": [145.0, 195.0], "includesElement__atomic_radius_rahm": [246.0, 284.0], "includesElement__atomic_volume": [18.4, 22.5], "includesElement__atomic_weight": [121.76, 138.9055], "includesElement__covalent_radius_cordero": [139.0, 207.0], "includesElement__covalent_radius_pyykko": [140.0, 180.0], "includesElement__covalent_radius_pyykko_double": [133.0, 139.0], "includesElement__covalent_radius_pyykko_triple": [127.0, 139.0], "includesElement__density": [6.68, 6.15], "includesElement__dipole_polarizability": [43.0, 215.0], "includesElement__dipole_polarizability_unc": [2.0, 20.0], "includesElement__electron_affinity": [1.046, 0.47], "includesElement__electronegativity_allred-rochow": [0.0003214286, 9.259259e-05], "includesElement__electronegativity_cottrell-sutton": [0.212132, 0.1290994], "includesElement__electronegativity_ghosh": [0.1918774, 0.163142], "includesElement__electronegativity_gordy": [0.045, 0.01666667], "includesElement__electronegativity_mulliken": [4.827195, 3.02345], "includesElement__electronegativity_nagle": [0.4880907, 0.240747], "includesElement__electronegativity_pauling": [2.05, 1.1], "includesElement__electronegativity_sanderson": [0.7762722, 0.3946505], "includesElement__en_ghosh": [0.1918774, 0.163142], "includesElement__en_pauling": [2.05, 1.1], "includesElement__evaporation_heat": [195.2, 402.0], "includesElement__fusion_heat": [20.08, 8.5], "includesElement__glawe_number": [91, 32], "includesElement__group_id": [15, 3], "includesElement__heat_of_formation": [264.4, 431.0], "includesElement__is_radioactive": [false], "includesElement__lattice_constant": [4.51, 3.75], "includesElement__mendeleev_number": [96, 13], "includesElement__molar_heat_capacity": [25.23, 27.11], "includesElement__period": [5, 6], "includesElement__pettifor_number": [88, 33], "includesElement__specific_heat_capacity": [0.207, 0.195], "includesElement__vdw_radius": [206.0, 243.0], "includesElement__vdw_radius_alvarez": [247.0, 298.0], "includesElement__vdw_radius_mm3": [252.0, 278.0], "includesElement__vdw_radius_uff": [442.0, 352.2], "includesElement__abundance_sea": [0.00024, 3.4e-06], "includesElement__atomic_weight_uncertainty": [0.001, 7e-05], "includesElement__c6_gb": [504.0, 3730.0], "includesElement__covalent_radius_bragg": [140.0], "includesElement__electronegativity_allen": [11.74], "includesElement__en_allen": [11.74], "includesElement__metallic_radius": [139.0, 169.0], "includesElement__metallic_radius_c12": [166.0, 187.0], "includesElement__thermal_conductivity": [24.43, 13.4], "includesElement__vdw_radius_batsanov": [220.0, 250.0], "includesElement__c6": [492.0], "includesElement__vdw_radius_dreiding": [435.0], "includesElement__vdw_radius_truhlar": [206.0], "includesElement__discovery_year": [1839], "includesElement__gas_basicity": [991.9], "includesElement__proton_affinity": [1013.0], "formula": ["La4Sb2"], "spacegroup": ["139"], "thermalConductivity": [3.53311], "icsd": ["10442"], "band_gap": [0.0], "density": [6.69589], "density_atomic": [33.03037], "deprecated": [false], "efermi": [8.14244], "energy_above_hull": [0.0], "energy_per_atom": [-29.47783], "formation_energy_per_atom": [-1.079209], "is_gap_direct": [false], "is_magnetic": [false], "is_metal": [true], "is_stable": [true], "nelements": [2], "nsites": [6], "num_magnetic_sites": [0], "num_unique_magnetic_sites": [0], "theoretical": [false], "total_magnetization": [1.000841], "total_magnetization_normalized_formula_units": [0.5004205], "total_magnetization_normalized_vol": [0.005050105], "uncorrected_energy_per_atom": [-29.47783], "volume": [198.1822], "equilibrium_reaction_energy_per_atom": [-0.0590519]}