{"includesElement": ["", "P", "O", "Zr"], "includesElement___series_id": [1, 8], "includesElement__abundance_crust": [1050.0, 461000.0, 165.0], "includesElement__atomic_number": [15, 8, 40], "includesElement__atomic_radius": [100.0, 60.0, 155.0], "includesElement__atomic_radius_rahm": [223.0, 171.0, 269.0], "includesElement__atomic_volume": [17.0, 14.0, 14.1], "includesElement__atomic_weight": [30.97376, 15.999, 91.224], "includesElement__covalent_radius_cordero": [107.0, 66.0, 175.0], "includesElement__covalent_radius_pyykko": [111.0, 63.0, 154.0], "includesElement__covalent_radius_pyykko_double": [102.0, 57.0, 127.0], "includesElement__covalent_radius_pyykko_triple": [94.0, 53.0, 121.0], "includesElement__density": [1.823, 0.001308, 6.52], "includesElement__dipole_polarizability": [25.0, 5.3, 112.0], "includesElement__dipole_polarizability_unc": [1.0, 0.2, 13.0], "includesElement__discovery_year": [1669, 1774, 1789], "includesElement__electron_affinity": [0.746607, 1.461113, 0.426], "includesElement__electronegativity_allred-rochow": [0.0003895788, 0.001146384, 0.0001328217], "includesElement__electronegativity_cottrell-sutton": [0.2079501, 0.2687419, 0.1430194], "includesElement__electronegativity_ghosh": [0.206931, 0.304575, 0.1248887], "includesElement__electronegativity_gordy": [0.04324324, 0.07222222, 0.02045455], "includesElement__electronegativity_mulliken": [5.616646, 7.539584, 3.52995], "includesElement__electronegativity_nagle": [0.5848035, 1.042218, 0.3293169], "includesElement__electronegativity_pauling": [2.19, 3.44, 1.33], "includesElement__electronegativity_sanderson": [0.4510269, 0.9416494, 0.4744467], "includesElement__en_ghosh": [0.206931, 0.304575, 0.1248887], "includesElement__en_pauling": [2.19, 3.44, 1.33], "includesElement__evaporation_heat": [49.8, 567.0], "includesElement__fusion_heat": [2.51, 19.2], "includesElement__glawe_number": [89, 97, 49], "includesElement__group_id": [15, 16, 4], "includesElement__heat_of_formation": [316.5, 249.229, 610.0], "includesElement__is_radioactive": [false], "includesElement__lattice_constant": [7.17, 6.83, 3.23], "includesElement__mendeleev_number": [94, 99, 44], "includesElement__molar_heat_capacity": [23.824, 29.378, 25.36], "includesElement__period": [3, 2, 5], "includesElement__pettifor_number": [90, 101, 49], "includesElement__specific_heat_capacity": [0.769, 0.918, 0.278], "includesElement__vdw_radius": [180.0, 152.0, 223.0], "includesElement__vdw_radius_alvarez": [190.0, 150.0, 252.0], "includesElement__vdw_radius_mm3": [222.0, 182.0, 254.0], "includesElement__vdw_radius_uff": [414.7, 350.0, 312.4], "includesElement__abundance_sea": [0.06, 857000.0, 3e-05], "includesElement__atomic_weight_uncertainty": [5e-09, 0.002], "includesElement__c6_gb": [187.0, 16.7, 1360.0], "includesElement__electronegativity_allen": [13.33, 21.36, 7.808], "includesElement__en_allen": [13.33, 21.36, 7.808], "includesElement__metallic_radius": [110.0, 145.0], "includesElement__metallic_radius_c12": [128.0, 160.0], "includesElement__vdw_radius_batsanov": [195.0, 155.0, 230.0], "includesElement__c6": [185.0, 15.6], "includesElement__is_monoisotopic": [true], "includesElement__vdw_radius_dreiding": [415.0, 340.46], "includesElement__gas_basicity": [604.8, 459.6], "includesElement__proton_affinity": [626.8, 485.2], "includesElement__vdw_radius_bondi": [180.0, 152.0], "includesElement__covalent_radius_bragg": [65.0], "includesElement__thermal_conductivity": [0.027, 22.7], "includesElement__vdw_radius_rt": [158.0], "formula": ["O28P8Zr4"], "spacegroup": ["205"], "thermalConductivity": [3.84663], "icsd": ["15084"], "band_gap": [4.4725], "density": [2.911839], "density_atomic": [15.12174], "deprecated": [false], "efermi": [-0.5622158], "energy_above_hull": [0.0], "energy_per_atom": [-8.508047], "formation_energy_per_atom": [-3.103598], "is_gap_direct": [false], "is_magnetic": [false], "is_metal": [false], "is_stable": [true], "nelements": [3], "nsites": [40], "num_magnetic_sites": [0], "num_unique_magnetic_sites": [0], "theoretical": [false], "total_magnetization": [0.0], "total_magnetization_normalized_formula_units": [0.0], "total_magnetization_normalized_vol": [0.0], "uncorrected_energy_per_atom": [-11.14006], "volume": [604.8696], "cbm": [3.8924], "equilibrium_reaction_energy_per_atom": [-0.06193609], "vbm": [-0.5801]}