{"includesElement": ["", "Pt", "Y"], "includesElement___series_id": [8], "includesElement__abundance_crust": [0.005, 33.0], "includesElement__atomic_number": [78, 39], "includesElement__atomic_radius": [135.0, 180.0], "includesElement__atomic_radius_rahm": [230.0, 274.0], "includesElement__atomic_volume": [9.1, 19.8], "includesElement__atomic_weight": [195.084, 88.90584], "includesElement__covalent_radius_cordero": [136.0, 190.0], "includesElement__covalent_radius_pyykko": [123.0, 163.0], "includesElement__covalent_radius_pyykko_double": [112.0, 130.0], "includesElement__covalent_radius_pyykko_triple": [110.0, 124.0], "includesElement__density": [21.5, 4.47], "includesElement__dipole_polarizability": [48.0, 162.0], "includesElement__dipole_polarizability_unc": [4.0, 12.0], "includesElement__discovery_year": [1735, 1789], "includesElement__electron_affinity": [2.128, 0.307], "includesElement__electronegativity_allred-rochow": [0.0002346487, 0.0001129135], "includesElement__electronegativity_cottrell-sutton": [0.1698876, 0.1356647], "includesElement__electronegativity_ghosh": [0.25691, 0.1216986], "includesElement__electronegativity_gordy": [0.02886179, 0.01840491], "includesElement__electronegativity_mulliken": [5.543415, 3.26213], "includesElement__electronegativity_nagle": [0.5928156, 0.2645668], "includesElement__electronegativity_pauling": [2.2, 1.22], "includesElement__electronegativity_sanderson": [1.45101, 0.3923941], "includesElement__en_ghosh": [0.25691, 0.1216986], "includesElement__en_pauling": [2.2, 1.22], "includesElement__evaporation_heat": [470.0, 367.0], "includesElement__fusion_heat": [21.76, 11.5], "includesElement__glawe_number": [64, 21], "includesElement__group_id": [10, 3], "includesElement__heat_of_formation": [565.7, 424.7], "includesElement__is_radioactive": [false], "includesElement__lattice_constant": [3.92, 3.65], "includesElement__mendeleev_number": [69, 12], "includesElement__molar_heat_capacity": [25.86, 26.53], "includesElement__period": [6, 5], "includesElement__pettifor_number": [68, 19], "includesElement__specific_heat_capacity": [0.133, 0.298], "includesElement__vdw_radius": [213.0, 232.0], "includesElement__vdw_radius_alvarez": [229.0, 275.0], "includesElement__vdw_radius_mm3": [239.0, 271.0], "includesElement__vdw_radius_uff": [275.4, 334.5], "includesElement__atomic_weight_uncertainty": [0.009, 2e-05], "includesElement__c6_gb": [470.0, 2600.0], "includesElement__electronegativity_allen": [10.16, 6.631], "includesElement__en_allen": [10.16, 6.631], "includesElement__metallic_radius": [130.0, 162.0], "includesElement__metallic_radius_c12": [139.0, 180.0], "includesElement__thermal_conductivity": [71.6], "includesElement__vdw_radius_batsanov": [205.0, 240.0], "includesElement__abundance_sea": [1.3e-05], "includesElement__is_monoisotopic": [true], "includesElement__gas_basicity": [945.9], "includesElement__proton_affinity": [967.0], "formula": ["Pt4Y12"], "spacegroup": ["62"], "thermalConductivity": [1.03128], "icsd": ["8016"], "band_gap": [0.0], "density": [6.835395], "density_atomic": [28.04664], "deprecated": [false], "efermi": [3.911399], "energy_above_hull": [0.0], "energy_per_atom": [-28.87172], "formation_energy_per_atom": [-0.7645875], "homogeneous_poisson": [0.36], "is_gap_direct": [false], "is_magnetic": [false], "is_metal": [true], "is_stable": [true], "nelements": [2], "nsites": [16], "num_magnetic_sites": [0], "num_unique_magnetic_sites": [0], "theoretical": [false], "total_magnetization": [2.118492], "total_magnetization_normalized_formula_units": [0.529623], "total_magnetization_normalized_vol": [0.004720913], "uncorrected_energy_per_atom": [-28.87172], "universal_anisotropy": [2.508], "volume": [448.7463], "equilibrium_reaction_energy_per_atom": [-0.007532873]}