{"includesElement": ["", "P", "Ce"], "includesElement___series_id": [1, 9], "includesElement__abundance_crust": [1050.0, 66.5], "includesElement__atomic_number": [15, 58], "includesElement__atomic_radius": [100.0, 185.0], "includesElement__atomic_radius_rahm": [223.0, 282.0], "includesElement__atomic_volume": [17.0, 21.0], "includesElement__atomic_weight": [30.97376, 140.116], "includesElement__covalent_radius_cordero": [107.0, 204.0], "includesElement__covalent_radius_pyykko": [111.0, 163.0], "includesElement__covalent_radius_pyykko_double": [102.0, 137.0], "includesElement__covalent_radius_pyykko_triple": [94.0, 131.0], "includesElement__density": [1.823, 6.77], "includesElement__dipole_polarizability": [25.0, 205.0], "includesElement__dipole_polarizability_unc": [1.0, 20.0], "includesElement__discovery_year": [1669, 1803], "includesElement__electron_affinity": [0.746607, 0.65], "includesElement__electronegativity_allred-rochow": [0.0003895788, 0.0001129135], "includesElement__electronegativity_cottrell-sutton": [0.2079501, 0.1356647], "includesElement__electronegativity_ghosh": [0.206931, 0.16761], "includesElement__electronegativity_gordy": [0.04324324, 0.01840491], "includesElement__electronegativity_mulliken": [5.616646, 3.0943], "includesElement__electronegativity_nagle": [0.5848035, 0.2692167], "includesElement__electronegativity_pauling": [2.19, 1.12], "includesElement__electronegativity_sanderson": [0.4510269, 0.5356179], "includesElement__en_ghosh": [0.206931, 0.16761], "includesElement__en_pauling": [2.19, 1.12], "includesElement__evaporation_heat": [49.8, 398.0], "includesElement__fusion_heat": [2.51, 5.2], "includesElement__glawe_number": [89, 31], "includesElement__group_id": [15], "includesElement__heat_of_formation": [316.5, 420.1], "includesElement__is_radioactive": [false], "includesElement__lattice_constant": [7.17, 5.16], "includesElement__mendeleev_number": [94, 15], "includesElement__molar_heat_capacity": [23.824, 26.94], "includesElement__period": [3, 6], "includesElement__pettifor_number": [90, 32], "includesElement__specific_heat_capacity": [0.769, 0.192], "includesElement__vdw_radius": [180.0, 242.0], "includesElement__vdw_radius_alvarez": [190.0, 288.0], "includesElement__vdw_radius_mm3": [222.0, 274.0], "includesElement__vdw_radius_uff": [414.7, 355.6], "includesElement__abundance_sea": [0.06, 1.2e-06], "includesElement__atomic_weight_uncertainty": [5e-09, 0.001], "includesElement__c6_gb": [187.0, 3480.0], "includesElement__electronegativity_allen": [13.33], "includesElement__en_allen": [13.33], "includesElement__metallic_radius": [110.0], "includesElement__metallic_radius_c12": [128.0], "includesElement__vdw_radius_batsanov": [195.0], "includesElement__c6": [185.0], "includesElement__is_monoisotopic": [true], "includesElement__vdw_radius_dreiding": [415.0], "includesElement__gas_basicity": [604.8], "includesElement__proton_affinity": [626.8], "includesElement__vdw_radius_bondi": [180.0], "includesElement__thermal_conductivity": [11.3], "formula": ["Ce1P1"], "spacegroup": ["225"], "thermalConductivity": [12.7541], "icsd": ["52006"], "band_gap": [0.0], "density": [5.464085], "density_atomic": [25.99715], "deprecated": [false], "efermi": [7.106516], "energy_above_hull": [0.0], "energy_per_atom": [-21.67835], "formation_energy_per_atom": [-1.756999], "homogeneous_poisson": [0.208], "is_gap_direct": [false], "is_magnetic": [true], "is_metal": [true], "is_stable": [true], "nelements": [2], "nsites": [2], "num_magnetic_sites": [1], "num_unique_magnetic_sites": [1], "theoretical": [false], "total_magnetization": [0.9032509], "total_magnetization_normalized_formula_units": [0.9032509], "total_magnetization_normalized_vol": [0.01737211], "uncorrected_energy_per_atom": [-21.67835], "universal_anisotropy": [1.308], "volume": [51.9943], "equilibrium_reaction_energy_per_atom": [-1.374419]}