{"includesElement": ["", "Ga", "Ta"], "includesElement___series_id": [7, 8], "includesElement__abundance_crust": [19.0, 2.0], "includesElement__atomic_number": [31, 73], "includesElement__atomic_radius": [130.0, 145.0], "includesElement__atomic_radius_rahm": [233.0, 258.0], "includesElement__atomic_volume": [11.8, 10.9], "includesElement__atomic_weight": [69.723, 180.9479], "includesElement__covalent_radius_cordero": [122.0, 170.0], "includesElement__covalent_radius_pyykko": [124.0, 146.0], "includesElement__covalent_radius_pyykko_double": [117.0, 126.0], "includesElement__covalent_radius_pyykko_triple": [121.0, 119.0], "includesElement__density": [5.91, 16.4], "includesElement__dipole_polarizability": [50.0, 74.0], "includesElement__dipole_polarizability_unc": [3.0, 20.0], "includesElement__discovery_year": [1875, 1802], "includesElement__electron_affinity": [0.43, 0.322], "includesElement__electronegativity_allred-rochow": [0.0003251821, 0.0001548133], "includesElement__electronegativity_cottrell-sutton": [0.2008048, 0.1503421], "includesElement__electronegativity_ghosh": [0.1723773, 0.234581], "includesElement__electronegativity_gordy": [0.04032258, 0.02260274], "includesElement__electronegativity_mulliken": [3.214651, 3.935785], "includesElement__electronegativity_nagle": [0.3914868, 0.4072985], "includesElement__electronegativity_pauling": [1.81, 1.5], "includesElement__electronegativity_sanderson": [0.720541, 0.8358832], "includesElement__en_ghosh": [0.1723773, 0.234581], "includesElement__en_pauling": [1.81, 1.5], "includesElement__evaporation_heat": [270.3, 758.0], "includesElement__fusion_heat": [5.59, 24.7], "includesElement__glawe_number": [79, 52], "includesElement__group_id": [13, 5], "includesElement__heat_of_formation": [271.96, 782.0], "includesElement__is_radioactive": [false], "includesElement__lattice_constant": [4.51, 3.31], "includesElement__mendeleev_number": [83, 49], "includesElement__molar_heat_capacity": [26.03, 25.36], "includesElement__period": [4, 6], "includesElement__pettifor_number": [81, 53], "includesElement__specific_heat_capacity": [0.373, 0.14], "includesElement__vdw_radius": [187.0, 222.0], "includesElement__vdw_radius_alvarez": [232.0, 253.0], "includesElement__vdw_radius_mm3": [246.0, 243.0], "includesElement__vdw_radius_uff": [438.3, 317.0], "includesElement__abundance_sea": [3e-05, 2e-06], "includesElement__atomic_weight_uncertainty": [0.001, 2e-05], "includesElement__c6_gb": [456.0, 887.0], "includesElement__electronegativity_allen": [10.39, 7.93], "includesElement__en_allen": [10.39, 7.93], "includesElement__metallic_radius": [125.0, 134.0], "includesElement__metallic_radius_c12": [140.0, 146.0], "includesElement__thermal_conductivity": [28.1, 57.5], "includesElement__vdw_radius_batsanov": [210.0, 220.0], "includesElement__c6": [498.0], "includesElement__vdw_radius_dreiding": [439.0], "includesElement__vdw_radius_bondi": [187.0], "formula": ["Ga4Ta6"], "spacegroup": ["127"], "thermalConductivity": [8.98879], "icsd": ["107309"], "band_gap": [0.0], "density": [13.77569], "density_atomic": [16.44881], "deprecated": [false], "efermi": [5.522936], "energy_above_hull": [0.0], "energy_per_atom": [-34.08808], "formation_energy_per_atom": [-0.3558722], "is_gap_direct": [false], "is_magnetic": [false], "is_metal": [true], "is_stable": [true], "nelements": [2], "nsites": [10], "num_magnetic_sites": [0], "num_unique_magnetic_sites": [0], "theoretical": [false], "total_magnetization": [0.0], "total_magnetization_normalized_formula_units": [0.0], "total_magnetization_normalized_vol": [0.0], "uncorrected_energy_per_atom": [-34.08808], "volume": [164.4881], "equilibrium_reaction_energy_per_atom": [-0.248779]}