{"includesElement": ["", "Ti", "Y"], "includesElement___series_id": [8], "includesElement__abundance_crust": [5650.0, 33.0], "includesElement__atomic_number": [22, 39], "includesElement__atomic_radius": [140.0, 180.0], "includesElement__atomic_radius_rahm": [257.0, 274.0], "includesElement__atomic_volume": [10.6, 19.8], "includesElement__atomic_weight": [47.867, 88.90584], "includesElement__covalent_radius_cordero": [160.0, 190.0], "includesElement__covalent_radius_pyykko": [136.0, 163.0], "includesElement__covalent_radius_pyykko_double": [117.0, 130.0], "includesElement__covalent_radius_pyykko_triple": [108.0, 124.0], "includesElement__density": [4.506, 4.47], "includesElement__dipole_polarizability": [100.0, 162.0], "includesElement__dipole_polarizability_unc": [10.0, 12.0], "includesElement__discovery_year": [1791, 1789], "includesElement__electron_affinity": [0.079, 0.307], "includesElement__electronegativity_allred-rochow": [0.0001703071, 0.0001129135], "includesElement__electronegativity_cottrell-sutton": [0.1521899, 0.1356647], "includesElement__electronegativity_ghosh": [0.1233637, 0.1216986], "includesElement__electronegativity_gordy": [0.02316176, 0.01840491], "includesElement__electronegativity_mulliken": [3.45356, 3.26213], "includesElement__electronegativity_nagle": [0.3419952, 0.2645668], "includesElement__electronegativity_pauling": [1.54, 1.22], "includesElement__electronegativity_sanderson": [0.4055462, 0.3923941], "includesElement__en_ghosh": [0.1233637, 0.1216986], "includesElement__en_pauling": [1.54, 1.22], "includesElement__evaporation_heat": [422.6, 367.0], "includesElement__fusion_heat": [18.8, 11.5], "includesElement__glawe_number": [51, 21], "includesElement__group_id": [4, 3], "includesElement__heat_of_formation": [473.0, 424.7], "includesElement__is_radioactive": [false], "includesElement__lattice_constant": [2.95, 3.65], "includesElement__mendeleev_number": [43, 12], "includesElement__molar_heat_capacity": [25.06, 26.53], "includesElement__period": [4, 5], "includesElement__pettifor_number": [51, 19], "includesElement__specific_heat_capacity": [0.523, 0.298], "includesElement__vdw_radius": [211.0, 232.0], "includesElement__vdw_radius_alvarez": [246.0, 275.0], "includesElement__vdw_radius_mm3": [239.0, 271.0], "includesElement__vdw_radius_uff": [317.5, 334.5], "includesElement__abundance_sea": [0.001, 1.3e-05], "includesElement__atomic_weight_uncertainty": [0.001, 2e-05], "includesElement__c6_gb": [1200.0, 2600.0], "includesElement__covalent_radius_bragg": [140.0], "includesElement__electronegativity_allen": [8.17, 6.631], "includesElement__en_allen": [8.17, 6.631], "includesElement__metallic_radius": [132.0, 162.0], "includesElement__metallic_radius_c12": [147.0, 180.0], "includesElement__thermal_conductivity": [21.9], "includesElement__vdw_radius_batsanov": [215.0, 240.0], "includesElement__c6": [1044.0], "includesElement__gas_basicity": [853.7, 945.9], "includesElement__proton_affinity": [876.0, 967.0], "includesElement__is_monoisotopic": [true], "formula": ["Ti1Y1"], "spacegroup": ["221"], "thermalConductivity": [7.63154], "icsd": ["188184"], "band_gap": [0.0], "density": [4.639649], "density_atomic": [24.47563], "deprecated": [false], "efermi": [4.049233], "energy_above_hull": [0.3644753], "energy_per_atom": [-16.2612], "formation_energy_per_atom": [0.3644753], "homogeneous_poisson": [0.342], "is_gap_direct": [false], "is_magnetic": [true], "is_metal": [true], "is_stable": [false], "nelements": [2], "nsites": [2], "num_magnetic_sites": [1], "num_unique_magnetic_sites": [1], "theoretical": [true], "total_magnetization": [1.331063], "total_magnetization_normalized_formula_units": [1.331063], "total_magnetization_normalized_vol": [0.02719161], "uncorrected_energy_per_atom": [-6.816506], "universal_anisotropy": [5.571], "volume": [48.95126]}