{"includesElement": ["", "S", "Tb"], "includesElement___series_id": [1, 9], "includesElement__abundance_crust": [350.0, 1.2], "includesElement__atomic_number": [16, 65], "includesElement__atomic_radius": [100.0, 175.0], "includesElement__atomic_radius_rahm": [214.0, 276.0], "includesElement__atomic_volume": [15.5, 19.2], "includesElement__atomic_weight": [32.06, 158.9254], "includesElement__covalent_radius_cordero": [105.0, 194.0], "includesElement__covalent_radius_pyykko": [103.0, 168.0], "includesElement__covalent_radius_pyykko_double": [94.0, 135.0], "includesElement__covalent_radius_pyykko_triple": [95.0], "includesElement__density": [2.07, 8.23], "includesElement__dipole_polarizability": [19.4, 170.0], "includesElement__dipole_polarizability_unc": [0.1, 20.0], "includesElement__electron_affinity": [2.077104, 1.165], "includesElement__electronegativity_allred-rochow": [0.0005137148, 0.0001009779], "includesElement__electronegativity_cottrell-sutton": [0.2300274, 0.130247], "includesElement__electronegativity_ghosh": [0.23596, 0.198863], "includesElement__electronegativity_gordy": [0.05291262, 0.01696429], "includesElement__electronegativity_mulliken": [6.218557, 3.5144], "includesElement__electronegativity_nagle": [0.6762644, 0.4014652], "includesElement__electronegativity_pauling": [2.58], "includesElement__electronegativity_sanderson": [0.6397251, 0.5163695], "includesElement__en_ghosh": [0.23596, 0.198863], "includesElement__en_pauling": [2.58], "includesElement__evaporation_heat": [10.5, 389.0], "includesElement__fusion_heat": [1.23], "includesElement__glawe_number": [96, 25], "includesElement__group_id": [16], "includesElement__heat_of_formation": [277.17, 388.7], "includesElement__is_radioactive": [false], "includesElement__lattice_constant": [10.47, 3.6], "includesElement__mendeleev_number": [100, 29], "includesElement__molar_heat_capacity": [22.7, 28.91], "includesElement__period": [3, 6], "includesElement__pettifor_number": [94, 26], "includesElement__specific_heat_capacity": [0.708, 0.182], "includesElement__vdw_radius": [180.0, 233.0], "includesElement__vdw_radius_alvarez": [189.0, 279.0], "includesElement__vdw_radius_mm3": [215.0, 270.0], "includesElement__vdw_radius_uff": [403.5, 345.1], "includesElement__abundance_sea": [905.0, 1.4e-07], "includesElement__c6_gb": [140.0, 2590.0], "includesElement__covalent_radius_bragg": [102.0], "includesElement__electronegativity_allen": [15.31], "includesElement__en_allen": [15.31], "includesElement__metallic_radius": [104.0], "includesElement__metallic_radius_c12": [127.0], "includesElement__thermal_conductivity": [0.27, 11.1], "includesElement__vdw_radius_batsanov": [180.0], "includesElement__c6": [134.0], "includesElement__vdw_radius_dreiding": [403.0], "includesElement__gas_basicity": [640.2], "includesElement__proton_affinity": [664.3], "includesElement__vdw_radius_bondi": [180.0], "includesElement__vdw_radius_rt": [181.0], "includesElement__discovery_year": [1843], "includesElement__atomic_weight_uncertainty": [2e-05], "includesElement__is_monoisotopic": [true], "formula": ["S1Tb1"], "spacegroup": ["225"], "thermalConductivity": [9.54719], "icsd": ["43604"], "band_gap": [0.0], "density": [7.473371], "density_atomic": [21.21847], "deprecated": [false], "efermi": [6.460703], "energy_above_hull": [0.0], "energy_per_atom": [-21.90169], "formation_energy_per_atom": [-2.270971], "homogeneous_poisson": [0.309], "is_gap_direct": [false], "is_magnetic": [false], "is_metal": [true], "is_stable": [true], "nelements": [2], "nsites": [2], "num_magnetic_sites": [0], "num_unique_magnetic_sites": [0], "theoretical": [false], "total_magnetization": [5.7e-06], "total_magnetization_normalized_formula_units": [5.7e-06], "total_magnetization_normalized_vol": [1.34317e-07], "uncorrected_energy_per_atom": [-21.90169], "universal_anisotropy": [3.718], "volume": [42.43693], "equilibrium_reaction_energy_per_atom": [-0.2257402]}