{"includesElement": ["", "Ag", "I"], "includesElement___series_id": [8, 6], "includesElement__abundance_crust": [0.075, 0.45], "includesElement__atomic_number": [47, 53], "includesElement__atomic_radius": [160.0, 140.0], "includesElement__atomic_radius_rahm": [225.0, 238.0], "includesElement__atomic_volume": [10.3, 25.7], "includesElement__atomic_weight": [107.8682, 126.9045], "includesElement__covalent_radius_cordero": [145.0, 139.0], "includesElement__covalent_radius_pyykko": [128.0, 133.0], "includesElement__covalent_radius_pyykko_double": [139.0, 129.0], "includesElement__covalent_radius_pyykko_triple": [137.0, 125.0], "includesElement__density": [10.5, 4.933], "includesElement__dipole_polarizability": [55.0, 32.9], "includesElement__dipole_polarizability_unc": [8.0, 1.3], "includesElement__electron_affinity": [1.302, 3.059037], "includesElement__electronegativity_allred-rochow": [0.0002258301, 0.0004296455], "includesElement__electronegativity_cottrell-sutton": [0.1700184, 0.2390457], "includesElement__electronegativity_ghosh": [0.1472165, 0.2195176], "includesElement__electronegativity_gordy": [0.02890625, 0.05714286], "includesElement__electronegativity_mulliken": [4.439117, 6.755148], "includesElement__electronegativity_nagle": [0.5848035, 0.5969904], "includesElement__electronegativity_pauling": [1.93, 2.66], "includesElement__electronegativity_sanderson": [0.9437955, 0.9386429], "includesElement__en_ghosh": [0.1472165, 0.2195176], "includesElement__en_pauling": [1.93, 2.66], "includesElement__evaporation_heat": [254.1, 41.95], "includesElement__fusion_heat": [11.95, 15.52], "includesElement__glawe_number": [67, 99], "includesElement__group_id": [11, 17], "includesElement__heat_of_formation": [284.9, 106.757], "includesElement__is_radioactive": [false], "includesElement__lattice_constant": [4.09, 7.72], "includesElement__mendeleev_number": [72, 109], "includesElement__molar_heat_capacity": [25.35, 54.43], "includesElement__period": [5], "includesElement__pettifor_number": [71, 97], "includesElement__specific_heat_capacity": [0.235, 0.214], "includesElement__vdw_radius": [211.0, 198.0], "includesElement__vdw_radius_alvarez": [253.0, 204.0], "includesElement__vdw_radius_mm3": [243.0, 236.0], "includesElement__vdw_radius_uff": [314.8, 450.0], "includesElement__abundance_sea": [4e-05, 0.06], "includesElement__atomic_weight_uncertainty": [0.0002, 3e-05], "includesElement__c6_gb": [341.0, 389.0], "includesElement__covalent_radius_bragg": [177.0, 140.0], "includesElement__electronegativity_allen": [11.05, 13.95], "includesElement__en_allen": [11.05, 13.95], "includesElement__metallic_radius": [134.0], "includesElement__metallic_radius_c12": [144.0, 139.0], "includesElement__thermal_conductivity": [429.0], "includesElement__vdw_radius_batsanov": [210.0], "includesElement__discovery_year": [1811], "includesElement__c6": [385.0], "includesElement__is_monoisotopic": [true], "includesElement__vdw_radius_dreiding": [415.0], "includesElement__gas_basicity": [583.5], "includesElement__proton_affinity": [608.2], "includesElement__vdw_radius_bondi": [198.0], "includesElement__vdw_radius_rt": [203.0], "formula": ["Ag1I1"], "spacegroup": ["225"], "thermalConductivity": [0.687118], "icsd": ["161581"], "band_gap": [0.7684], "density": [6.642206], "density_atomic": [29.34637], "deprecated": [false], "efermi": [3.305505], "energy_above_hull": [0.09501692], "energy_per_atom": [-2.556218], "formation_energy_per_atom": [-0.3980661], "homogeneous_poisson": [0.363], "is_gap_direct": [false], "is_magnetic": [false], "is_metal": [false], "is_stable": [false], "nelements": [2], "nsites": [2], "num_magnetic_sites": [0], "num_unique_magnetic_sites": [0], "theoretical": [false], "total_magnetization": [0.0], "total_magnetization_normalized_formula_units": [0.0], "total_magnetization_normalized_vol": [0.0], "uncorrected_energy_per_atom": [-2.366718], "universal_anisotropy": [0.025], "volume": [58.69273], "cbm": [3.8487], "vbm": [3.0803]}