{"includesElement": ["", "P", "Nd"], "includesElement___series_id": [1, 9], "includesElement__abundance_crust": [1050.0, 41.5], "includesElement__atomic_number": [15, 60], "includesElement__atomic_radius": [100.0, 185.0], "includesElement__atomic_radius_rahm": [223.0, 284.0], "includesElement__atomic_volume": [17.0, 20.6], "includesElement__atomic_weight": [30.97376, 144.242], "includesElement__covalent_radius_cordero": [107.0, 201.0], "includesElement__covalent_radius_pyykko": [111.0, 174.0], "includesElement__covalent_radius_pyykko_double": [102.0, 137.0], "includesElement__covalent_radius_pyykko_triple": [94.0], "includesElement__density": [1.823, 7.01], "includesElement__dipole_polarizability": [25.0, 208.0], "includesElement__dipole_polarizability_unc": [1.0, 20.0], "includesElement__discovery_year": [1669, 1925], "includesElement__electron_affinity": [0.746607, 1.916], "includesElement__electronegativity_allred-rochow": [0.0003895788, 9.413397e-05], "includesElement__electronegativity_cottrell-sutton": [0.2079501, 0.1279817], "includesElement__electronegativity_ghosh": [0.206931, 0.176539], "includesElement__electronegativity_gordy": [0.04324324, 0.01637931], "includesElement__electronegativity_mulliken": [5.616646, 3.7205], "includesElement__electronegativity_nagle": [0.5848035, 0.3066874], "includesElement__electronegativity_pauling": [2.19, 1.14], "includesElement__electronegativity_sanderson": [0.4510269, 0.447218], "includesElement__en_ghosh": [0.206931, 0.176539], "includesElement__en_pauling": [2.19, 1.14], "includesElement__evaporation_heat": [49.8, 289.0], "includesElement__fusion_heat": [2.51, 7.1], "includesElement__glawe_number": [89, 29], "includesElement__group_id": [15], "includesElement__heat_of_formation": [316.5, 326.9], "includesElement__is_radioactive": [false], "includesElement__lattice_constant": [7.17, 3.66], "includesElement__mendeleev_number": [94, 19], "includesElement__molar_heat_capacity": [23.824, 27.45], "includesElement__period": [3, 6], "includesElement__pettifor_number": [90, 30], "includesElement__specific_heat_capacity": [0.769, 0.19], "includesElement__vdw_radius": [180.0, 239.0], "includesElement__vdw_radius_alvarez": [190.0, 295.0], "includesElement__vdw_radius_mm3": [222.0, 273.0], "includesElement__vdw_radius_uff": [414.7, 357.5], "includesElement__abundance_sea": [0.06, 2.8e-06], "includesElement__atomic_weight_uncertainty": [5e-09, 0.003], "includesElement__c6_gb": [187.0, 3560.0], "includesElement__electronegativity_allen": [13.33], "includesElement__en_allen": [13.33], "includesElement__metallic_radius": [110.0], "includesElement__metallic_radius_c12": [128.0], "includesElement__vdw_radius_batsanov": [195.0], "includesElement__c6": [185.0], "includesElement__is_monoisotopic": [true], "includesElement__vdw_radius_dreiding": [415.0], "includesElement__gas_basicity": [604.8], "includesElement__proton_affinity": [626.8], "includesElement__vdw_radius_bondi": [180.0], "formula": ["Nd1P1"], "spacegroup": ["225"], "thermalConductivity": [15.581], "icsd": ["645677"], "band_gap": [0.0], "density": [5.642034], "density_atomic": [25.78437], "deprecated": [false], "efermi": [4.226903], "energy_above_hull": [0.0], "energy_per_atom": [-20.98368], "formation_energy_per_atom": [-1.773641], "homogeneous_poisson": [0.229], "is_gap_direct": [false], "is_magnetic": [false], "is_metal": [true], "is_stable": [true], "nelements": [2], "nsites": [2], "num_magnetic_sites": [0], "num_unique_magnetic_sites": [0], "theoretical": [false], "total_magnetization": [7e-07], "total_magnetization_normalized_formula_units": [7e-07], "total_magnetization_normalized_vol": [1.357411e-08], "uncorrected_energy_per_atom": [-20.98368], "universal_anisotropy": [0.623], "volume": [51.56875], "equilibrium_reaction_energy_per_atom": [-1.386576]}