{"includesElement": ["", "Si", "Fe"], "includesElement___series_id": [5, 8], "includesElement__abundance_crust": [282000.0, 56300.0], "includesElement__atomic_number": [14, 26], "includesElement__atomic_radius": [110.0, 140.0], "includesElement__atomic_radius_rahm": [232.0, 237.0], "includesElement__atomic_volume": [12.1, 7.1], "includesElement__atomic_weight": [28.085, 55.845], "includesElement__covalent_radius_cordero": [111.0, 142.0], "includesElement__covalent_radius_pyykko": [116.0], "includesElement__covalent_radius_pyykko_double": [107.0, 109.0], "includesElement__covalent_radius_pyykko_triple": [102.0], "includesElement__density": [2.3296, 7.87], "includesElement__dipole_polarizability": [37.3, 62.0], "includesElement__dipole_polarizability_unc": [0.7, 4.0], "includesElement__discovery_year": [1824], "includesElement__electron_affinity": [1.389521, 0.151], "includesElement__electronegativity_allred-rochow": [0.0003084126, 0.0002786861], "includesElement__electronegativity_cottrell-sutton": [0.1891451, 0.1797987], "includesElement__electronegativity_ghosh": [0.178503, 0.1392532], "includesElement__electronegativity_gordy": [0.03577586, 0.03232759], "includesElement__electronegativity_mulliken": [4.770602, 4.026734], "includesElement__electronegativity_nagle": [0.4750986, 0.5053195], "includesElement__electronegativity_pauling": [1.9, 1.83], "includesElement__electronegativity_sanderson": [0.3468158, 0.748727], "includesElement__en_ghosh": [0.178503, 0.1392532], "includesElement__en_pauling": [1.9, 1.83], "includesElement__evaporation_heat": [383.0, 340.0], "includesElement__fusion_heat": [50.6, 13.8], "includesElement__glawe_number": [85, 71], "includesElement__group_id": [14, 8], "includesElement__heat_of_formation": [450.0, 415.5], "includesElement__is_radioactive": [false], "includesElement__lattice_constant": [5.43, 2.87], "includesElement__mendeleev_number": [88, 59], "includesElement__molar_heat_capacity": [19.99, 25.1], "includesElement__period": [3, 4], "includesElement__pettifor_number": [85, 61], "includesElement__specific_heat_capacity": [0.712, 0.449], "includesElement__vdw_radius": [210.0, 204.0], "includesElement__vdw_radius_alvarez": [219.0, 244.0], "includesElement__vdw_radius_mm3": [229.0, 223.0], "includesElement__vdw_radius_uff": [429.5, 291.2], "includesElement__abundance_sea": [2.2, 0.002], "includesElement__c6_gb": [308.0, 548.0], "includesElement__covalent_radius_bragg": [117.0, 140.0], "includesElement__electronegativity_allen": [11.33, 10.64], "includesElement__en_allen": [11.33, 10.64], "includesElement__metallic_radius": [117.0], "includesElement__metallic_radius_c12": [138.0, 126.0], "includesElement__thermal_conductivity": [149.0, 80.4], "includesElement__vdw_radius_batsanov": [210.0, 205.0], "includesElement__c6": [305.0, 482.0], "includesElement__vdw_radius_dreiding": [427.0], "includesElement__gas_basicity": [814.1, 731.1], "includesElement__proton_affinity": [837.0, 754.0], "includesElement__vdw_radius_bondi": [210.0], "includesElement__atomic_weight_uncertainty": [0.002], "formula": ["Fe4Si4"], "spacegroup": ["198"], "thermalConductivity": [19.6319], "icsd": ["36188"], "band_gap": [0.1802], "density": [6.534565], "density_atomic": [10.66405], "deprecated": [false], "efermi": [9.48775], "energy_above_hull": [0.0], "energy_per_atom": [-7.423649], "formation_energy_per_atom": [-0.4759794], "homogeneous_poisson": [0.215], "is_gap_direct": [false], "is_magnetic": [false], "is_metal": [false], "is_stable": [true], "nelements": [2], "nsites": [8], "num_magnetic_sites": [0], "num_unique_magnetic_sites": [0], "theoretical": [false], "total_magnetization": [0.0], "total_magnetization_normalized_formula_units": [0.0], "total_magnetization_normalized_vol": [0.0], "uncorrected_energy_per_atom": [-11.86649], "universal_anisotropy": [0.052], "volume": [85.31241], "cbm": [9.6141], "e_electronic": [92.15771], "e_ionic": [21.63447], "e_total": [113.7922], "equilibrium_reaction_energy_per_atom": [-0.1169708], "n": [9.599881], "vbm": [9.4339], "e_ij_max": [1.07752]}