{"includesElement": ["", "Ca", "O"], "includesElement___series_id": [4, 1], "includesElement__abundance_crust": [41500.0, 461000.0], "includesElement__atomic_number": [20, 8], "includesElement__atomic_radius": [180.0, 60.0], "includesElement__atomic_radius_rahm": [270.0, 171.0], "includesElement__atomic_volume": [29.9, 14.0], "includesElement__atomic_weight": [40.078, 15.999], "includesElement__covalent_radius_cordero": [176.0, 66.0], "includesElement__covalent_radius_pyykko": [171.0, 63.0], "includesElement__covalent_radius_pyykko_double": [147.0, 57.0], "includesElement__covalent_radius_pyykko_triple": [133.0, 53.0], "includesElement__density": [1.54, 0.001308], "includesElement__dipole_polarizability": [160.8, 5.3], "includesElement__dipole_polarizability_unc": [4.0, 0.2], "includesElement__discovery_year": [1808, 1774], "includesElement__electron_affinity": [0.02455, 1.461113], "includesElement__electronegativity_allred-rochow": [9.746589e-05, 0.001146384], "includesElement__electronegativity_cottrell-sutton": [0.1290994, 0.2687419], "includesElement__electronegativity_ghosh": [0.1154119, 0.304575], "includesElement__electronegativity_gordy": [0.01666667, 0.07222222], "includesElement__electronegativity_mulliken": [3.068853, 7.539584], "includesElement__electronegativity_nagle": [0.2316939, 1.042218], "includesElement__electronegativity_pauling": [1.0, 3.44], "includesElement__electronegativity_sanderson": [0.1901577, 0.9416494], "includesElement__en_ghosh": [0.1154119, 0.304575], "includesElement__en_pauling": [1.0, 3.44], "includesElement__evaporation_heat": [153.6], "includesElement__fusion_heat": [9.2], "includesElement__glawe_number": [16, 97], "includesElement__group_id": [2, 16], "includesElement__heat_of_formation": [177.8, 249.229], "includesElement__is_radioactive": [false], "includesElement__lattice_constant": [5.58, 6.83], "includesElement__mendeleev_number": [7, 99], "includesElement__molar_heat_capacity": [25.929, 29.378], "includesElement__period": [4, 2], "includesElement__pettifor_number": [16, 101], "includesElement__specific_heat_capacity": [0.647, 0.918], "includesElement__vdw_radius": [231.0, 152.0], "includesElement__vdw_radius_alvarez": [262.0, 150.0], "includesElement__vdw_radius_mm3": [281.0, 182.0], "includesElement__vdw_radius_uff": [339.9, 350.0], "includesElement__abundance_sea": [412.0, 857000.0], "includesElement__atomic_weight_uncertainty": [0.004], "includesElement__c6_gb": [2230.0, 16.7], "includesElement__covalent_radius_bragg": [170.0, 65.0], "includesElement__electronegativity_allen": [6.113, 21.36], "includesElement__en_allen": [6.113, 21.36], "includesElement__metallic_radius": [174.0], "includesElement__metallic_radius_c12": [197.0], "includesElement__vdw_radius_batsanov": [240.0, 155.0], "includesElement__c6": [2163.0, 15.6], "includesElement__vdw_radius_truhlar": [231.0], "includesElement__thermal_conductivity": [0.027], "includesElement__vdw_radius_dreiding": [340.46], "includesElement__gas_basicity": [459.6], "includesElement__proton_affinity": [485.2], "includesElement__vdw_radius_bondi": [152.0], "includesElement__vdw_radius_rt": [158.0], "formula": ["Ca1O1", "CaO"], "mp_id": ["mp-2605"], "spacegroup": ["225"], "thermalConductivity": [24.3778, 26.43897, 28.48052], "icsd": ["163628"], "band_gap": [3.6301], "density": [3.353084], "density_atomic": [13.88553], "deprecated": [false], "efermi": [2.256971], "energy_above_hull": [0.0], "energy_per_atom": [-9.729581], "formation_energy_per_atom": [-3.230109], "homogeneous_poisson": [0.216], "is_gap_direct": [false], "is_magnetic": [false], "is_metal": [false], "is_stable": [true], "nelements": [2], "nsites": [2], "num_magnetic_sites": [0], "num_unique_magnetic_sites": [0], "theoretical": [false], "total_magnetization": [0.0], "total_magnetization_normalized_formula_units": [0.0], "total_magnetization_normalized_vol": [0.0], "uncorrected_energy_per_atom": [-9.729581], "universal_anisotropy": [0.001], "volume": [27.77107], "cbm": [5.868], "e_electronic": [3.784007], "e_ionic": [12.68735], "e_total": [16.47136], "equilibrium_reaction_energy_per_atom": [-3.230109], "n": [1.945252], "vbm": [2.2379]}