{"includesElement": ["", "Ba", "Te"], "includesElement___series_id": [4, 5], "includesElement__abundance_crust": [425.0, 0.001], "includesElement__atomic_number": [56, 52], "includesElement__atomic_radius": [215.0, 140.0], "includesElement__atomic_radius_rahm": [293.0, 242.0], "includesElement__atomic_volume": [39.0, 20.5], "includesElement__atomic_weight": [137.327, 127.6], "includesElement__covalent_radius_cordero": [215.0, 138.0], "includesElement__covalent_radius_pyykko": [196.0, 136.0], "includesElement__covalent_radius_pyykko_double": [161.0, 128.0], "includesElement__covalent_radius_pyykko_triple": [149.0, 121.0], "includesElement__density": [3.62, 6.232], "includesElement__dipole_polarizability": [272.0, 38.0], "includesElement__dipole_polarizability_unc": [10.0, 4.0], "includesElement__discovery_year": [1808, 1782], "includesElement__electron_affinity": [0.14462, 1.970876], "includesElement__electronegativity_allred-rochow": [7.418784e-05, 0.0003757569], "includesElement__electronegativity_cottrell-sutton": [0.1205853, 0.2260596], "includesElement__electronegativity_ghosh": [0.1586786, 0.2056992], "includesElement__electronegativity_gordy": [0.01454082, 0.05110294], "includesElement__electronegativity_mulliken": [2.678142, 5.490268], "includesElement__electronegativity_nagle": [0.1944556, 0.5404919], "includesElement__electronegativity_pauling": [0.89, 2.1], "includesElement__electronegativity_sanderson": [0.3032951, 0.8622506], "includesElement__en_ghosh": [0.1586786, 0.2056992], "includesElement__en_pauling": [0.89, 2.1], "includesElement__evaporation_heat": [142.0, 49.8], "includesElement__fusion_heat": [7.66, 17.91], "includesElement__glawe_number": [14, 94], "includesElement__group_id": [2, 16], "includesElement__heat_of_formation": [179.1, 196.6], "includesElement__is_radioactive": [false], "includesElement__lattice_constant": [5.02, 4.45], "includesElement__mendeleev_number": [9, 102], "includesElement__molar_heat_capacity": [28.07, 25.73], "includesElement__period": [6, 5], "includesElement__pettifor_number": [14, 92], "includesElement__specific_heat_capacity": [0.204, 0.202], "includesElement__vdw_radius": [268.0, 206.0], "includesElement__vdw_radius_alvarez": [303.0, 199.0], "includesElement__vdw_radius_mm3": [307.0, 244.0], "includesElement__vdw_radius_uff": [370.3, 447.0], "includesElement__abundance_sea": [0.013], "includesElement__atomic_weight_uncertainty": [0.007, 0.03], "includesElement__c6_gb": [5540.0, 471.0], "includesElement__covalent_radius_bragg": [210.0, 133.0], "includesElement__electronegativity_allen": [5.211, 12.76], "includesElement__en_allen": [5.211, 12.76], "includesElement__metallic_radius": [198.0, 137.0], "includesElement__metallic_radius_c12": [222.0, 160.0], "includesElement__vdw_radius_batsanov": [270.0, 210.0], "includesElement__vdw_radius_truhlar": [268.0], "includesElement__thermal_conductivity": [14.3], "includesElement__c6": [445.0], "includesElement__vdw_radius_dreiding": [423.0], "includesElement__vdw_radius_bondi": [206.0], "formula": ["Ba1Te1"], "spacegroup": ["221"], "thermalConductivity": [2.6017], "icsd": ["108097"], "band_gap": [0.7769], "density": [5.680578], "density_atomic": [38.72155], "deprecated": [false], "efermi": [3.956089], "energy_above_hull": [0.1651173], "energy_per_atom": [-4.369598], "formation_energy_per_atom": [-1.838457], "homogeneous_poisson": [0.304], "is_gap_direct": [false], "is_magnetic": [false], "is_metal": [false], "is_stable": [false], "nelements": [2], "nsites": [2], "num_magnetic_sites": [0], "num_unique_magnetic_sites": [0], "theoretical": [false], "total_magnetization": [0.0], "total_magnetization_normalized_formula_units": [0.0], "total_magnetization_normalized_vol": [0.0], "uncorrected_energy_per_atom": [-4.158598], "universal_anisotropy": [3.969], "volume": [77.44311], "cbm": [4.5915], "vbm": [3.8146]}