{"includesElement": ["", "U", "W", "C"], "includesElement___series_id": [10, 8, 1], "includesElement__abundance_crust": [2.7, 1.25, 200.0], "includesElement__atomic_number": [92, 74, 6], "includesElement__atomic_radius": [175.0, 135.0, 70.0], "includesElement__atomic_radius_rahm": [283.0, 253.0, 190.0], "includesElement__atomic_volume": [12.5, 9.53, 5.3], "includesElement__atomic_weight": [238.0289, 183.84, 12.011], "includesElement__covalent_radius_cordero": [196.0, 162.0, 73.0], "includesElement__covalent_radius_pyykko": [170.0, 137.0, 75.0], "includesElement__covalent_radius_pyykko_double": [134.0, 120.0, 67.0], "includesElement__covalent_radius_pyykko_triple": [118.0, 115.0, 60.0], "includesElement__density": [19.1, 19.3, 2.2], "includesElement__dipole_polarizability": [129.0, 68.0, 11.3], "includesElement__dipole_polarizability_unc": [17.0, 15.0, 0.2], "includesElement__discovery_year": [1789, 1783], "includesElement__electronegativity_allred-rochow": [0.0001038062, 0.0001838137, 0.0005777778], "includesElement__electronegativity_cottrell-sutton": [0.1328422, 0.1586899, 0.2081666], "includesElement__electronegativity_ghosh": [0.13207, 0.2390504, 0.224776], "includesElement__electronegativity_gordy": [0.01764706, 0.02518248, 0.04333333], "includesElement__electronegativity_mulliken": [3.097025, 4.340145, 6.261208], "includesElement__electronegativity_nagle": [0.3596283, 0.4451921, 0.7073926], "includesElement__electronegativity_pauling": [1.7, 2.55], "includesElement__electronegativity_sanderson": [0.618118, 1.019283, 0.427525], "includesElement__en_ghosh": [0.13207, 0.2390504, 0.224776], "includesElement__en_pauling": [1.7, 2.55], "includesElement__evaporation_heat": [417.0, 824.0], "includesElement__fusion_heat": [12.6, 35.0], "includesElement__glawe_number": [36, 57, 87], "includesElement__heat_of_formation": [533.0, 851.0, 716.87], "includesElement__is_radioactive": [true, false], "includesElement__lattice_constant": [2.85, 3.16, 3.57], "includesElement__mendeleev_number": [20, 53, 87], "includesElement__molar_heat_capacity": [27.665, 24.27, 8.517], "includesElement__period": [7, 6, 2], "includesElement__pettifor_number": [45, 56, 95], "includesElement__specific_heat_capacity": [0.116, 0.132, 0.709], "includesElement__vdw_radius": [241.0, 218.0, 170.0], "includesElement__vdw_radius_alvarez": [271.0, 257.0, 177.0], "includesElement__vdw_radius_mm3": [252.0, 239.0, 204.0], "includesElement__vdw_radius_uff": [339.5, 309.6, 385.1], "includesElement__abundance_sea": [0.0032, 0.0001, 28.0], "includesElement__atomic_weight_uncertainty": [3e-05, 0.01], "includesElement__thermal_conductivity": [27.5, 173.0, 1.59], "includesElement__vdw_radius_batsanov": [230.0, 210.0, 170.0], "includesElement__gas_basicity": [973.2], "includesElement__proton_affinity": [995.2], "includesElement__electron_affinity": [0.81626, 1.262119], "includesElement__group_id": [6, 14], "includesElement__c6_gb": [757.0, 47.9], "includesElement__electronegativity_allen": [8.67, 15.05], "includesElement__en_allen": [8.67, 15.05], "includesElement__metallic_radius": [130.0], "includesElement__metallic_radius_c12": [139.0, 86.0], "includesElement__covalent_radius_bragg": [77.0], "includesElement__c6": [46.6], "includesElement__vdw_radius_dreiding": [389.83], "includesElement__vdw_radius_bondi": [170.0], "includesElement__vdw_radius_rt": [177.0], "formula": ["C8U4W4"], "spacegroup": ["62"], "thermalConductivity": [2.18577], "icsd": ["619032"], "band_gap": [0.0], "density": [13.37253], "density_atomic": [13.84215], "deprecated": [false], "efermi": [9.327812], "energy_above_hull": [0.5498268], "energy_per_atom": [-10.43436], "formation_energy_per_atom": [0.2423578], "is_gap_direct": [false], "is_magnetic": [true], "is_metal": [true], "is_stable": [false], "nelements": [3], "nsites": [16], "num_magnetic_sites": [4], "num_unique_magnetic_sites": [1], "theoretical": [false], "total_magnetization": [4.393459], "total_magnetization_normalized_formula_units": [1.098365], "total_magnetization_normalized_vol": [0.01983733], "uncorrected_energy_per_atom": [-10.43436], "volume": [221.4743]}