{"includesElement": ["", "O", "U"], "includesElement___series_id": [1, 10], "includesElement__abundance_crust": [461000.0, 2.7], "includesElement__atomic_number": [8, 92], "includesElement__atomic_radius": [60.0, 175.0], "includesElement__atomic_radius_rahm": [171.0, 283.0], "includesElement__atomic_volume": [14.0, 12.5], "includesElement__atomic_weight": [15.999, 238.0289], "includesElement__covalent_radius_cordero": [66.0, 196.0], "includesElement__covalent_radius_pyykko": [63.0, 170.0], "includesElement__covalent_radius_pyykko_double": [57.0, 134.0], "includesElement__covalent_radius_pyykko_triple": [53.0, 118.0], "includesElement__density": [0.001308, 19.1], "includesElement__dipole_polarizability": [5.3, 129.0], "includesElement__dipole_polarizability_unc": [0.2, 17.0], "includesElement__discovery_year": [1774, 1789], "includesElement__electron_affinity": [1.461113], "includesElement__electronegativity_allred-rochow": [0.001146384, 0.0001038062], "includesElement__electronegativity_cottrell-sutton": [0.2687419, 0.1328422], "includesElement__electronegativity_ghosh": [0.304575, 0.13207], "includesElement__electronegativity_gordy": [0.07222222, 0.01764706], "includesElement__electronegativity_mulliken": [7.539584, 3.097025], "includesElement__electronegativity_nagle": [1.042218, 0.3596283], "includesElement__electronegativity_pauling": [3.44, 1.7], "includesElement__electronegativity_sanderson": [0.9416494, 0.618118], "includesElement__en_ghosh": [0.304575, 0.13207], "includesElement__en_pauling": [3.44, 1.7], "includesElement__glawe_number": [97, 36], "includesElement__group_id": [16], "includesElement__heat_of_formation": [249.229, 533.0], "includesElement__is_radioactive": [false, true], "includesElement__lattice_constant": [6.83, 2.85], "includesElement__mendeleev_number": [99, 20], "includesElement__molar_heat_capacity": [29.378, 27.665], "includesElement__period": [2, 7], "includesElement__pettifor_number": [101, 45], "includesElement__specific_heat_capacity": [0.918, 0.116], "includesElement__vdw_radius": [152.0, 241.0], "includesElement__vdw_radius_alvarez": [150.0, 271.0], "includesElement__vdw_radius_mm3": [182.0, 252.0], "includesElement__vdw_radius_uff": [350.0, 339.5], "includesElement__abundance_sea": [857000.0, 0.0032], "includesElement__c6_gb": [16.7], "includesElement__covalent_radius_bragg": [65.0], "includesElement__electronegativity_allen": [21.36], "includesElement__en_allen": [21.36], "includesElement__thermal_conductivity": [0.027, 27.5], "includesElement__vdw_radius_batsanov": [155.0, 230.0], "includesElement__c6": [15.6], "includesElement__vdw_radius_dreiding": [340.46], "includesElement__gas_basicity": [459.6, 973.2], "includesElement__proton_affinity": [485.2, 995.2], "includesElement__vdw_radius_bondi": [152.0], "includesElement__vdw_radius_rt": [158.0], "includesElement__evaporation_heat": [417.0], "includesElement__fusion_heat": [12.6], "includesElement__atomic_weight_uncertainty": [3e-05], "formula": ["O1U1"], "spacegroup": ["225"], "thermalConductivity": [12.2363], "icsd": ["24223"], "band_gap": [0.0], "density": [14.6683], "density_atomic": [14.37876], "deprecated": [false], "efermi": [13.04764], "energy_above_hull": [0.2114284], "energy_per_atom": [-10.72819], "formation_energy_per_atom": [-2.606351], "homogeneous_poisson": [0.568], "is_gap_direct": [false], "is_magnetic": [true], "is_metal": [true], "is_stable": [false], "nelements": [2], "nsites": [2], "num_magnetic_sites": [1], "num_unique_magnetic_sites": [1], "theoretical": [false], "total_magnetization": [2.00063], "total_magnetization_normalized_formula_units": [2.00063], "total_magnetization_normalized_vol": [0.06956892], "uncorrected_energy_per_atom": [-10.38469], "universal_anisotropy": [2.836], "volume": [28.75752]}