{"includesElement": ["", "Ca", "N"], "includesElement___series_id": [4, 1], "includesElement__abundance_crust": [41500.0, 19.0], "includesElement__atomic_number": [20, 7], "includesElement__atomic_radius": [180.0, 65.0], "includesElement__atomic_radius_rahm": [270.0, 179.0], "includesElement__atomic_volume": [29.9, 17.3], "includesElement__atomic_weight": [40.078, 14.007], "includesElement__covalent_radius_cordero": [176.0, 71.0], "includesElement__covalent_radius_pyykko": [171.0, 71.0], "includesElement__covalent_radius_pyykko_double": [147.0, 60.0], "includesElement__covalent_radius_pyykko_triple": [133.0, 54.0], "includesElement__density": [1.54, 0.001145], "includesElement__dipole_polarizability": [160.8, 7.4], "includesElement__dipole_polarizability_unc": [4.0, 0.2], "includesElement__discovery_year": [1808, 1772], "includesElement__electron_affinity": [0.02455, -1.4], "includesElement__electronegativity_allred-rochow": [9.746589e-05, 0.000773656], "includesElement__electronegativity_cottrell-sutton": [0.1290994, 0.2343706], "includesElement__electronegativity_ghosh": [0.1154119, 0.26493], "includesElement__electronegativity_gordy": [0.01666667, 0.05492958], "includesElement__electronegativity_mulliken": [3.068853, 6.567065], "includesElement__electronegativity_nagle": [0.2316939, 0.8774979], "includesElement__electronegativity_pauling": [1.0, 3.04], "includesElement__electronegativity_sanderson": [0.1901577, 0.577482], "includesElement__en_ghosh": [0.1154119, 0.26493], "includesElement__en_pauling": [1.0, 3.04], "includesElement__evaporation_heat": [153.6], "includesElement__fusion_heat": [9.2], "includesElement__glawe_number": [16, 88], "includesElement__group_id": [2, 15], "includesElement__heat_of_formation": [177.8, 472.44], "includesElement__is_radioactive": [false], "includesElement__lattice_constant": [5.58, 4.039], "includesElement__mendeleev_number": [7, 93], "includesElement__molar_heat_capacity": [25.929, 29.124], "includesElement__period": [4, 2], "includesElement__pettifor_number": [16, 100], "includesElement__specific_heat_capacity": [0.647, 1.04], "includesElement__vdw_radius": [231.0, 155.0], "includesElement__vdw_radius_alvarez": [262.0, 166.0], "includesElement__vdw_radius_mm3": [281.0, 193.0], "includesElement__vdw_radius_uff": [339.9, 366.0], "includesElement__abundance_sea": [412.0, 0.5], "includesElement__atomic_weight_uncertainty": [0.004], "includesElement__c6_gb": [2230.0, 25.7], "includesElement__covalent_radius_bragg": [170.0, 65.0], "includesElement__electronegativity_allen": [6.113, 18.13], "includesElement__en_allen": [6.113, 18.13], "includesElement__metallic_radius": [174.0], "includesElement__metallic_radius_c12": [197.0, 53.0], "includesElement__vdw_radius_batsanov": [240.0, 160.0], "includesElement__c6": [2163.0, 24.2], "includesElement__vdw_radius_truhlar": [231.0], "includesElement__thermal_conductivity": [0.026], "includesElement__vdw_radius_dreiding": [366.21], "includesElement__gas_basicity": [318.7], "includesElement__proton_affinity": [342.2], "includesElement__vdw_radius_bondi": [155.0], "includesElement__vdw_radius_rt": [164.0], "formula": ["Ca24N16"], "spacegroup": ["206"], "thermalConductivity": [1.73153, 1.74598, 1.7293, 1.71879, 1.73152], "icsd": ["162791", "169725", "34678", "410754", "50991"], "band_gap": [1.1111], "density": [2.634933], "density_atomic": [18.68515], "deprecated": [false], "efermi": [2.356541], "energy_above_hull": [0.0], "energy_per_atom": [-8.834197], "formation_energy_per_atom": [-0.9597207], "homogeneous_poisson": [0.286], "is_gap_direct": [false], "is_magnetic": [false], "is_metal": [false], "is_stable": [true], "nelements": [2], "nsites": [40], "num_magnetic_sites": [0], "num_unique_magnetic_sites": [0], "theoretical": [false], "total_magnetization": [0.0], "total_magnetization_normalized_formula_units": [0.0], "total_magnetization_normalized_vol": [0.0], "uncorrected_energy_per_atom": [-8.834197], "universal_anisotropy": [0.0], "volume": [747.406], "cbm": [3.3975], "equilibrium_reaction_energy_per_atom": [-0.1136905], "vbm": [2.2864]}