{"includesElement": ["", "Rb", "Br"], "includesElement___series_id": [3, 6], "includesElement__abundance_crust": [90.0, 2.4], "includesElement__atomic_number": [37, 35], "includesElement__atomic_radius": [235.0, 115.0], "includesElement__atomic_radius_rahm": [240.0, 219.0], "includesElement__atomic_volume": [55.9, 23.5], "includesElement__atomic_weight": [85.4678, 79.904], "includesElement__covalent_radius_cordero": [220.0, 120.0], "includesElement__covalent_radius_pyykko": [210.0, 114.0], "includesElement__covalent_radius_pyykko_double": [202.0, 109.0], "includesElement__density": [1.53, 3.1028], "includesElement__dipole_polarizability": [319.8, 21.0], "includesElement__dipole_polarizability_unc": [0.3, 1.0], "includesElement__discovery_year": [1861, 1826], "includesElement__electron_affinity": [0.48592, 3.363588], "includesElement__electronegativity_allred-rochow": [4.988662e-05, 0.0005847953], "includesElement__electronegativity_cottrell-sutton": [0.1023533, 0.2581989], "includesElement__electronegativity_ghosh": [0.104686, 0.2412578], "includesElement__electronegativity_gordy": [0.01047619, 0.06666667], "includesElement__electronegativity_mulliken": [2.331524, 7.588699], "includesElement__electronegativity_nagle": [0.1462314, 0.6933613], "includesElement__electronegativity_pauling": [0.82, 2.96], "includesElement__electronegativity_sanderson": [0.1764136, 1.049026], "includesElement__en_ghosh": [0.104686, 0.2412578], "includesElement__en_pauling": [0.82, 2.96], "includesElement__evaporation_heat": [75.8, 29.56], "includesElement__fusion_heat": [2.2, 10.57], "includesElement__glawe_number": [9, 100], "includesElement__group_id": [1, 17], "includesElement__heat_of_formation": [80.9, 111.85], "includesElement__is_radioactive": [false], "includesElement__lattice_constant": [5.59, 6.67], "includesElement__mendeleev_number": [4, 108], "includesElement__molar_heat_capacity": [31.06, 75.69], "includesElement__period": [5, 4], "includesElement__pettifor_number": [9, 98], "includesElement__specific_heat_capacity": [0.363, 0.474], "includesElement__vdw_radius": [303.0, 185.0], "includesElement__vdw_radius_alvarez": [321.0, 186.0], "includesElement__vdw_radius_mm3": [325.0, 222.0], "includesElement__vdw_radius_uff": [411.4, 418.9], "includesElement__abundance_sea": [0.12, 67.3], "includesElement__atomic_weight_uncertainty": [0.0003], "includesElement__c6_gb": [4660.0, 187.0], "includesElement__covalent_radius_bragg": [225.0, 119.0], "includesElement__electronegativity_allen": [4.177, 15.88], "includesElement__en_allen": [4.177, 15.88], "includesElement__metallic_radius": [216.0], "includesElement__metallic_radius_c12": [248.0, 117.0], "includesElement__thermal_conductivity": [58.2, 0.005], "includesElement__vdw_radius_batsanov": [290.0, 190.0], "includesElement__c6": [4769.0, 162.0], "includesElement__vdw_radius_truhlar": [303.0], "includesElement__covalent_radius_pyykko_triple": [110.0], "includesElement__vdw_radius_dreiding": [395.0], "includesElement__gas_basicity": [531.2], "includesElement__proton_affinity": [554.4], "includesElement__vdw_radius_bondi": [183.0], "includesElement__vdw_radius_rt": [187.0], "formula": ["Br1Rb1"], "spacegroup": ["221"], "thermalConductivity": [0.78782], "icsd": ["61522"], "band_gap": [3.9211], "density": [3.909295], "density_atomic": [35.12223], "deprecated": [false], "efermi": [-0.7562513], "energy_above_hull": [0.03156427], "energy_per_atom": [-3.305762], "formation_energy_per_atom": [-2.038981], "is_gap_direct": [false], "is_magnetic": [false], "is_metal": [false], "is_stable": [false], "nelements": [2], "nsites": [2], "num_magnetic_sites": [0], "num_unique_magnetic_sites": [0], "theoretical": [false], "total_magnetization": [0.0], "total_magnetization_normalized_formula_units": [0.0], "total_magnetization_normalized_vol": [0.0], "uncorrected_energy_per_atom": [-15.55505], "volume": [70.24446], "cbm": [3.0103], "vbm": [-0.9108]}