{"includesElement": ["", "P", "Tb"], "includesElement___series_id": [1, 9], "includesElement__abundance_crust": [1050.0, 1.2], "includesElement__atomic_number": [15, 65], "includesElement__atomic_radius": [100.0, 175.0], "includesElement__atomic_radius_rahm": [223.0, 276.0], "includesElement__atomic_volume": [17.0, 19.2], "includesElement__atomic_weight": [30.97376, 158.9254], "includesElement__covalent_radius_cordero": [107.0, 194.0], "includesElement__covalent_radius_pyykko": [111.0, 168.0], "includesElement__covalent_radius_pyykko_double": [102.0, 135.0], "includesElement__covalent_radius_pyykko_triple": [94.0], "includesElement__density": [1.823, 8.23], "includesElement__dipole_polarizability": [25.0, 170.0], "includesElement__dipole_polarizability_unc": [1.0, 20.0], "includesElement__discovery_year": [1669, 1843], "includesElement__electron_affinity": [0.746607, 1.165], "includesElement__electronegativity_allred-rochow": [0.0003895788, 0.0001009779], "includesElement__electronegativity_cottrell-sutton": [0.2079501, 0.130247], "includesElement__electronegativity_ghosh": [0.206931, 0.198863], "includesElement__electronegativity_gordy": [0.04324324, 0.01696429], "includesElement__electronegativity_mulliken": [5.616646, 3.5144], "includesElement__electronegativity_nagle": [0.5848035, 0.4014652], "includesElement__electronegativity_pauling": [2.19], "includesElement__electronegativity_sanderson": [0.4510269, 0.5163695], "includesElement__en_ghosh": [0.206931, 0.198863], "includesElement__en_pauling": [2.19], "includesElement__evaporation_heat": [49.8, 389.0], "includesElement__fusion_heat": [2.51], "includesElement__glawe_number": [89, 25], "includesElement__group_id": [15], "includesElement__heat_of_formation": [316.5, 388.7], "includesElement__is_radioactive": [false], "includesElement__lattice_constant": [7.17, 3.6], "includesElement__mendeleev_number": [94, 29], "includesElement__molar_heat_capacity": [23.824, 28.91], "includesElement__period": [3, 6], "includesElement__pettifor_number": [90, 26], "includesElement__specific_heat_capacity": [0.769, 0.182], "includesElement__vdw_radius": [180.0, 233.0], "includesElement__vdw_radius_alvarez": [190.0, 279.0], "includesElement__vdw_radius_mm3": [222.0, 270.0], "includesElement__vdw_radius_uff": [414.7, 345.1], "includesElement__abundance_sea": [0.06, 1.4e-07], "includesElement__atomic_weight_uncertainty": [5e-09, 2e-05], "includesElement__c6_gb": [187.0, 2590.0], "includesElement__electronegativity_allen": [13.33], "includesElement__en_allen": [13.33], "includesElement__metallic_radius": [110.0], "includesElement__metallic_radius_c12": [128.0], "includesElement__vdw_radius_batsanov": [195.0], "includesElement__c6": [185.0], "includesElement__is_monoisotopic": [true], "includesElement__vdw_radius_dreiding": [415.0], "includesElement__gas_basicity": [604.8], "includesElement__proton_affinity": [626.8], "includesElement__vdw_radius_bondi": [180.0], "includesElement__thermal_conductivity": [11.1], "formula": ["P1Tb1"], "spacegroup": ["225"], "thermalConductivity": [20.4592], "icsd": ["43600"], "band_gap": [0.0], "density": [6.823459], "density_atomic": [23.10667], "deprecated": [false], "efermi": [4.597291], "energy_above_hull": [0.0], "energy_per_atom": [-21.97189], "formation_energy_per_atom": [-1.857639], "homogeneous_poisson": [0.22], "is_gap_direct": [false], "is_magnetic": [false], "is_metal": [true], "is_stable": [true], "nelements": [2], "nsites": [2], "num_magnetic_sites": [0], "num_unique_magnetic_sites": [0], "theoretical": [false], "total_magnetization": [0.0], "total_magnetization_normalized_formula_units": [0.0], "total_magnetization_normalized_vol": [0.0], "uncorrected_energy_per_atom": [-21.97189], "universal_anisotropy": [0.575], "volume": [46.21335], "equilibrium_reaction_energy_per_atom": [-1.857639]}