{"includesElement": ["", "Ni", "Tl"], "includesElement___series_id": [8, 7], "includesElement__abundance_crust": [84.0, 0.85], "includesElement__atomic_number": [28, 81], "includesElement__atomic_radius": [135.0, 190.0], "includesElement__atomic_radius_rahm": [229.0, 242.0], "includesElement__atomic_volume": [6.6, 17.2], "includesElement__atomic_weight": [58.6934, 204.38], "includesElement__covalent_radius_cordero": [124.0, 145.0], "includesElement__covalent_radius_pyykko": [110.0, 144.0], "includesElement__covalent_radius_pyykko_double": [101.0, 142.0], "includesElement__covalent_radius_pyykko_triple": [101.0, 150.0], "includesElement__density": [8.9, 11.8], "includesElement__dipole_polarizability": [49.0, 50.0], "includesElement__dipole_polarizability_unc": [3.0, 2.0], "includesElement__discovery_year": [1751, 1861], "includesElement__electron_affinity": [1.156, 0.377], "includesElement__electronegativity_allred-rochow": [0.0003347107, 0.0002411265], "includesElement__electronegativity_cottrell-sutton": [0.1918806, 0.186339], "includesElement__electronegativity_ghosh": [0.1472068, 0.173447], "includesElement__electronegativity_gordy": [0.03681818, 0.03472222], "includesElement__electronegativity_mulliken": [4.397939, 3.242643], "includesElement__electronegativity_nagle": [0.588755, 0.3914868], "includesElement__electronegativity_pauling": [1.91, 1.8], "includesElement__electronegativity_sanderson": [0.937704, 0.9245096], "includesElement__en_ghosh": [0.1472068, 0.173447], "includesElement__en_pauling": [1.91, 1.8], "includesElement__evaporation_heat": [378.6, 162.4], "includesElement__fusion_heat": [17.61, 4.31], "includesElement__glawe_number": [69, 81], "includesElement__group_id": [10, 13], "includesElement__heat_of_formation": [430.1, 182.2], "includesElement__is_radioactive": [false], "includesElement__lattice_constant": [3.52, 3.46], "includesElement__mendeleev_number": [67, 85], "includesElement__molar_heat_capacity": [26.07, 26.32], "includesElement__period": [4, 6], "includesElement__pettifor_number": [67, 78], "includesElement__specific_heat_capacity": [0.444, 0.129], "includesElement__vdw_radius": [197.0, 196.0], "includesElement__vdw_radius_alvarez": [240.0, 247.0], "includesElement__vdw_radius_mm3": [222.0, 259.0], "includesElement__vdw_radius_uff": [283.4, 434.7], "includesElement__abundance_sea": [0.00056, 1.9e-05], "includesElement__atomic_weight_uncertainty": [0.0004], "includesElement__c6_gb": [393.0, 509.0], "includesElement__covalent_radius_bragg": [135.0, 190.0], "includesElement__electronegativity_allen": [11.13], "includesElement__en_allen": [11.13], "includesElement__metallic_radius": [115.0, 144.0], "includesElement__metallic_radius_c12": [124.0, 160.0], "includesElement__thermal_conductivity": [90.9, 46.1], "includesElement__vdw_radius_batsanov": [200.0, 220.0], "includesElement__c6": [373.0], "includesElement__gas_basicity": [714.1], "includesElement__proton_affinity": [737.0], "includesElement__vdw_radius_bondi": [196.0], "formula": ["Ni2Tl2"], "spacegroup": ["194"], "thermalConductivity": [1.21583], "icsd": ["105427"], "band_gap": [0.0], "density": [11.47937], "density_atomic": [19.02757], "deprecated": [false], "efermi": [7.016462], "energy_above_hull": [0.2280413], "energy_per_atom": [-32.35247], "formation_energy_per_atom": [0.2280413], "is_gap_direct": [false], "is_magnetic": [false], "is_metal": [true], "is_stable": [false], "nelements": [2], "nsites": [4], "num_magnetic_sites": [0], "num_unique_magnetic_sites": [0], "theoretical": [false], "total_magnetization": [1.2e-06], "total_magnetization_normalized_formula_units": [6e-07], "total_magnetization_normalized_vol": [1.57666e-08], "uncorrected_energy_per_atom": [-3.843349], "volume": [76.11027]}