{"includesElement": ["", "Zr", "Rh"], "includesElement___series_id": [8], "includesElement__abundance_crust": [165.0, 0.001], "includesElement__atomic_number": [40, 45], "includesElement__atomic_radius": [155.0, 135.0], "includesElement__atomic_radius_rahm": [269.0, 233.0], "includesElement__atomic_volume": [14.1, 8.3], "includesElement__atomic_weight": [91.224, 102.9055], "includesElement__covalent_radius_cordero": [175.0, 142.0], "includesElement__covalent_radius_pyykko": [154.0, 125.0], "includesElement__covalent_radius_pyykko_double": [127.0, 110.0], "includesElement__covalent_radius_pyykko_triple": [121.0, 106.0], "includesElement__density": [6.52, 12.4], "includesElement__dipole_polarizability": [112.0, 66.0], "includesElement__dipole_polarizability_unc": [13.0, 10.0], "includesElement__discovery_year": [1789, 1803], "includesElement__electron_affinity": [0.426, 1.137], "includesElement__electronegativity_allred-rochow": [0.0001328217, 0.0002176], "includesElement__electronegativity_cottrell-sutton": [0.1430194, 0.1649242], "includesElement__electronegativity_ghosh": [0.1248887, 0.1408379], "includesElement__electronegativity_gordy": [0.02045455, 0.0272], "includesElement__electronegativity_mulliken": [3.52995, 4.29795], "includesElement__electronegativity_nagle": [0.3293169, 0.5147142], "includesElement__electronegativity_pauling": [1.33, 2.28], "includesElement__electronegativity_sanderson": [0.4744467, 0.9761915], "includesElement__en_ghosh": [0.1248887, 0.1408379], "includesElement__en_pauling": [1.33, 2.28], "includesElement__evaporation_heat": [567.0, 494.0], "includesElement__fusion_heat": [19.2, 21.8], "includesElement__glawe_number": [49, 63], "includesElement__group_id": [4, 9], "includesElement__heat_of_formation": [610.0, 556.0], "includesElement__is_radioactive": [false], "includesElement__lattice_constant": [3.23, 3.8], "includesElement__mendeleev_number": [44, 64], "includesElement__molar_heat_capacity": [25.36, 24.98], "includesElement__period": [5], "includesElement__pettifor_number": [49, 66], "includesElement__specific_heat_capacity": [0.278, 0.243], "includesElement__vdw_radius": [223.0, 210.0], "includesElement__vdw_radius_alvarez": [252.0, 244.0], "includesElement__vdw_radius_mm3": [254.0, 234.0], "includesElement__vdw_radius_uff": [312.4, 292.9], "includesElement__abundance_sea": [3e-05], "includesElement__atomic_weight_uncertainty": [0.002, 2e-05], "includesElement__c6_gb": [1360.0, 708.0], "includesElement__electronegativity_allen": [7.808, 9.259], "includesElement__en_allen": [7.808, 9.259], "includesElement__metallic_radius": [145.0, 125.0], "includesElement__metallic_radius_c12": [160.0, 134.0], "includesElement__thermal_conductivity": [22.7, 150.0], "includesElement__vdw_radius_batsanov": [230.0, 200.0], "includesElement__is_monoisotopic": [true], "includesElement__gas_basicity": [745.4], "includesElement__proton_affinity": [768.0], "formula": ["Rh1Zr1"], "spacegroup": ["221"], "thermalConductivity": [2.27039], "icsd": ["105980"], "band_gap": [0.0], "density": [9.11251], "density_atomic": [17.68775], "deprecated": [false], "efermi": [5.582234], "energy_above_hull": [0.08393398], "energy_per_atom": [-24.24436], "formation_energy_per_atom": [-0.801351], "homogeneous_poisson": [0.381], "is_gap_direct": [false], "is_magnetic": [false], "is_metal": [true], "is_stable": [false], "nelements": [2], "nsites": [2], "num_magnetic_sites": [0], "num_unique_magnetic_sites": [0], "theoretical": [false], "total_magnetization": [6.58e-05], "total_magnetization_normalized_formula_units": [6.58e-05], "total_magnetization_normalized_vol": [1.860044e-06], "uncorrected_energy_per_atom": [-24.24436], "universal_anisotropy": [0.019], "volume": [35.3755]}