{"includesElement": ["", "Li", "H"], "includesElement___series_id": [3, 1], "includesElement__abundance_crust": [20.0, 1400.0], "includesElement__atomic_number": [3, 1], "includesElement__atomic_radius": [145.0, 25.0], "includesElement__atomic_radius_rahm": [220.0, 154.0], "includesElement__atomic_volume": [13.1, 14.1], "includesElement__atomic_weight": [6.94, 1.008], "includesElement__covalent_radius_cordero": [128.0, 31.0], "includesElement__covalent_radius_pyykko": [133.0, 32.0], "includesElement__covalent_radius_pyykko_double": [124.0], "includesElement__density": [0.534, 8.2e-05], "includesElement__dipole_polarizability": [164.1125, 4.50711], "includesElement__dipole_polarizability_unc": [0.0005, 3e-05], "includesElement__discovery_year": [1817, 1766], "includesElement__electron_affinity": [0.618049, 0.754195], "includesElement__electronegativity_allred-rochow": [7.3492e-05, 0.0009765625], "includesElement__electronegativity_cottrell-sutton": [0.09886575, 0.1767767], "includesElement__electronegativity_ghosh": [0.105093, 0.2638], "includesElement__electronegativity_gordy": [0.009774436, 0.03125], "includesElement__electronegativity_mulliken": [3.004882, 7.176315], "includesElement__electronegativity_nagle": [0.1826499, 0.6053882], "includesElement__electronegativity_pauling": [0.98, 2.2], "includesElement__electronegativity_sanderson": [0.04886793, 2.187771], "includesElement__en_ghosh": [0.105093, 0.2638], "includesElement__en_pauling": [0.98, 2.2], "includesElement__evaporation_heat": [148.0, 0.904], "includesElement__fusion_heat": [2.89, 0.117], "includesElement__glawe_number": [12, 103], "includesElement__group_id": [1], "includesElement__heat_of_formation": [159.3, 217.998], "includesElement__is_radioactive": [false], "includesElement__lattice_constant": [3.49, 3.75], "includesElement__mendeleev_number": [1, 105], "includesElement__molar_heat_capacity": [24.86, 28.836], "includesElement__period": [2, 1], "includesElement__pettifor_number": [12, 103], "includesElement__specific_heat_capacity": [3.582, 14.304], "includesElement__vdw_radius": [182.0, 110.0], "includesElement__vdw_radius_alvarez": [212.0, 120.0], "includesElement__vdw_radius_mm3": [255.0, 162.0], "includesElement__vdw_radius_uff": [245.1, 288.6], "includesElement__abundance_sea": [0.18, 108000.0], "includesElement__c6_gb": [1410.0, 6.51], "includesElement__covalent_radius_bragg": [150.0], "includesElement__electronegativity_allen": [5.392, 13.61], "includesElement__en_allen": [5.392, 13.61], "includesElement__metallic_radius": [123.0], "includesElement__metallic_radius_c12": [155.0, 78.0], "includesElement__thermal_conductivity": [84.8, 0.1815], "includesElement__vdw_radius_batsanov": [220.0], "includesElement__c6": [1392.0, 6.499027], "includesElement__vdw_radius_bondi": [181.0, 120.0], "includesElement__vdw_radius_dreiding": [319.5], "includesElement__vdw_radius_rt": [110.0], "formula": ["H1Li1", "HLi"], "mp_id": ["mp-23703"], "spacegroup": ["225"], "thermalConductivity": [9.01672, 40.80424, 46.87352], "icsd": ["157495"], "band_gap": [2.981], "density": [0.8143955], "density_atomic": [8.103879], "deprecated": [false], "efermi": [-0.9976768], "energy_above_hull": [0.0], "energy_per_atom": [-3.410272], "formation_energy_per_atom": [-0.4893621], "homogeneous_poisson": [0.079], "is_gap_direct": [true], "is_magnetic": [false], "is_metal": [false], "is_stable": [true], "nelements": [2], "nsites": [2], "num_magnetic_sites": [0], "num_unique_magnetic_sites": [0], "theoretical": [false], "total_magnetization": [0.0], "total_magnetization_normalized_formula_units": [0.0], "total_magnetization_normalized_vol": [0.0], "uncorrected_energy_per_atom": [-3.410272], "universal_anisotropy": [0.105], "volume": [16.20776], "cbm": [1.966], "e_electronic": [4.363421], "e_ionic": [9.896219], "e_total": [14.25964], "equilibrium_reaction_energy_per_atom": [-0.4893621], "n": [2.08888], "vbm": [-1.015]}