{"includesElement": ["", "Zr", "Fe"], "includesElement___series_id": [8], "includesElement__abundance_crust": [165.0, 56300.0], "includesElement__atomic_number": [40, 26], "includesElement__atomic_radius": [155.0, 140.0], "includesElement__atomic_radius_rahm": [269.0, 237.0], "includesElement__atomic_volume": [14.1, 7.1], "includesElement__atomic_weight": [91.224, 55.845], "includesElement__covalent_radius_cordero": [175.0, 142.0], "includesElement__covalent_radius_pyykko": [154.0, 116.0], "includesElement__covalent_radius_pyykko_double": [127.0, 109.0], "includesElement__covalent_radius_pyykko_triple": [121.0, 102.0], "includesElement__density": [6.52, 7.87], "includesElement__dipole_polarizability": [112.0, 62.0], "includesElement__dipole_polarizability_unc": [13.0, 4.0], "includesElement__discovery_year": [1789], "includesElement__electron_affinity": [0.426, 0.151], "includesElement__electronegativity_allred-rochow": [0.0001328217, 0.0002786861], "includesElement__electronegativity_cottrell-sutton": [0.1430194, 0.1797987], "includesElement__electronegativity_ghosh": [0.1248887, 0.1392532], "includesElement__electronegativity_gordy": [0.02045455, 0.03232759], "includesElement__electronegativity_mulliken": [3.52995, 4.026734], "includesElement__electronegativity_nagle": [0.3293169, 0.5053195], "includesElement__electronegativity_pauling": [1.33, 1.83], "includesElement__electronegativity_sanderson": [0.4744467, 0.748727], "includesElement__en_ghosh": [0.1248887, 0.1392532], "includesElement__en_pauling": [1.33, 1.83], "includesElement__evaporation_heat": [567.0, 340.0], "includesElement__fusion_heat": [19.2, 13.8], "includesElement__glawe_number": [49, 71], "includesElement__group_id": [4, 8], "includesElement__heat_of_formation": [610.0, 415.5], "includesElement__is_radioactive": [false], "includesElement__lattice_constant": [3.23, 2.87], "includesElement__mendeleev_number": [44, 59], "includesElement__molar_heat_capacity": [25.36, 25.1], "includesElement__period": [5, 4], "includesElement__pettifor_number": [49, 61], "includesElement__specific_heat_capacity": [0.278, 0.449], "includesElement__vdw_radius": [223.0, 204.0], "includesElement__vdw_radius_alvarez": [252.0, 244.0], "includesElement__vdw_radius_mm3": [254.0, 223.0], "includesElement__vdw_radius_uff": [312.4, 291.2], "includesElement__abundance_sea": [3e-05, 0.002], "includesElement__atomic_weight_uncertainty": [0.002], "includesElement__c6_gb": [1360.0, 548.0], "includesElement__electronegativity_allen": [7.808, 10.64], "includesElement__en_allen": [7.808, 10.64], "includesElement__metallic_radius": [145.0, 117.0], "includesElement__metallic_radius_c12": [160.0, 126.0], "includesElement__thermal_conductivity": [22.7, 80.4], "includesElement__vdw_radius_batsanov": [230.0, 205.0], "includesElement__covalent_radius_bragg": [140.0], "includesElement__c6": [482.0], "includesElement__gas_basicity": [731.1], "includesElement__proton_affinity": [754.0], "formula": ["Fe4Zr2"], "spacegroup": ["227"], "thermalConductivity": [3.18196], "icsd": ["103714"], "band_gap": [0.0], "density": [7.5473], "density_atomic": [14.88155], "deprecated": [false], "efermi": [4.967562], "energy_above_hull": [0.0], "energy_per_atom": [-8.776598], "formation_energy_per_atom": [-0.2806834], "homogeneous_poisson": [0.291], "is_gap_direct": [false], "is_magnetic": [true], "is_metal": [true], "is_stable": [true], "nelements": [2], "nsites": [6], "num_magnetic_sites": [6], "num_unique_magnetic_sites": [2], "theoretical": [false], "total_magnetization": [7.115718], "total_magnetization_normalized_formula_units": [3.557859], "total_magnetization_normalized_vol": [0.07969282], "uncorrected_energy_per_atom": [-17.3923], "universal_anisotropy": [0.252], "volume": [89.28932], "equilibrium_reaction_energy_per_atom": [-0.2320312]}