{"includesElement": ["", "Sb", "Sr"], "includesElement___series_id": [5, 4], "includesElement__abundance_crust": [0.2, 370.0], "includesElement__atomic_number": [51, 38], "includesElement__atomic_radius": [145.0, 200.0], "includesElement__atomic_radius_rahm": [246.0, 279.0], "includesElement__atomic_volume": [18.4, 33.7], "includesElement__atomic_weight": [121.76, 87.62], "includesElement__covalent_radius_cordero": [139.0, 195.0], "includesElement__covalent_radius_pyykko": [140.0, 185.0], "includesElement__covalent_radius_pyykko_double": [133.0, 157.0], "includesElement__covalent_radius_pyykko_triple": [127.0, 139.0], "includesElement__density": [6.68, 2.64], "includesElement__dipole_polarizability": [43.0, 197.2], "includesElement__dipole_polarizability_unc": [2.0, 0.2], "includesElement__electron_affinity": [1.046, 0.048], "includesElement__electronegativity_allred-rochow": [0.0003214286, 8.327246e-05], "includesElement__electronegativity_cottrell-sutton": [0.212132, 0.1241185], "includesElement__electronegativity_ghosh": [0.1918774, 0.1185082], "includesElement__electronegativity_gordy": [0.045, 0.01540541], "includesElement__electronegativity_mulliken": [4.827195, 2.871434], "includesElement__electronegativity_nagle": [0.4880907, 0.2164584], "includesElement__electronegativity_pauling": [2.05, 0.95], "includesElement__electronegativity_sanderson": [0.7762722, 0.2631786], "includesElement__en_ghosh": [0.1918774, 0.1185082], "includesElement__en_pauling": [2.05, 0.95], "includesElement__evaporation_heat": [195.2, 144.0], "includesElement__fusion_heat": [20.08, 9.2], "includesElement__glawe_number": [91, 15], "includesElement__group_id": [15, 2], "includesElement__heat_of_formation": [264.4, 164.0], "includesElement__is_radioactive": [false], "includesElement__lattice_constant": [4.51, 6.08], "includesElement__mendeleev_number": [96, 8], "includesElement__molar_heat_capacity": [25.23, 26.79], "includesElement__period": [5], "includesElement__pettifor_number": [88, 15], "includesElement__specific_heat_capacity": [0.207, 0.306], "includesElement__vdw_radius": [206.0, 249.0], "includesElement__vdw_radius_alvarez": [247.0, 284.0], "includesElement__vdw_radius_mm3": [252.0, 300.0], "includesElement__vdw_radius_uff": [442.0, 364.1], "includesElement__abundance_sea": [0.00024, 7.9], "includesElement__atomic_weight_uncertainty": [0.001, 0.01], "includesElement__c6_gb": [504.0, 3230.0], "includesElement__covalent_radius_bragg": [140.0, 195.0], "includesElement__electronegativity_allen": [11.74, 5.695], "includesElement__en_allen": [11.74, 5.695], "includesElement__metallic_radius": [139.0, 191.0], "includesElement__metallic_radius_c12": [166.0, 215.0], "includesElement__thermal_conductivity": [24.43], "includesElement__vdw_radius_batsanov": [220.0, 255.0], "includesElement__c6": [492.0, 3175.0], "includesElement__vdw_radius_dreiding": [435.0], "includesElement__vdw_radius_truhlar": [206.0, 249.0], "includesElement__discovery_year": [1790], "formula": ["Sb2Sr4"], "spacegroup": ["139"], "thermalConductivity": [2.54954], "icsd": ["42119"], "band_gap": [0.0], "density": [4.329146], "density_atomic": [37.97363], "deprecated": [false], "efermi": [3.727708], "energy_above_hull": [0.02989219], "energy_per_atom": [-3.423209], "formation_energy_per_atom": [-0.9185894], "homogeneous_poisson": [0.21], "is_gap_direct": [false], "is_magnetic": [false], "is_metal": [true], "is_stable": [false], "nelements": [2], "nsites": [6], "num_magnetic_sites": [0], "num_unique_magnetic_sites": [0], "theoretical": [false], "total_magnetization": [0.2747448], "total_magnetization_normalized_formula_units": [0.1373724], "total_magnetization_normalized_vol": [0.001205858], "uncorrected_energy_per_atom": [-19.68177], "universal_anisotropy": [0.204], "volume": [227.8418]}