{"includesElement": ["", "As", "Si"], "includesElement___series_id": [5], "includesElement__abundance_crust": [1.8, 282000.0], "includesElement__atomic_number": [33, 14], "includesElement__atomic_radius": [115.0, 110.0], "includesElement__atomic_radius_rahm": [231.0, 232.0], "includesElement__atomic_volume": [13.1, 12.1], "includesElement__atomic_weight": [74.92159, 28.085], "includesElement__covalent_radius_cordero": [119.0, 111.0], "includesElement__covalent_radius_pyykko": [121.0, 116.0], "includesElement__covalent_radius_pyykko_double": [114.0, 107.0], "includesElement__covalent_radius_pyykko_triple": [106.0, 102.0], "includesElement__density": [5.75, 2.3296], "includesElement__dipole_polarizability": [30.0, 37.3], "includesElement__dipole_polarizability_unc": [1.0, 0.7], "includesElement__electron_affinity": [0.804, 1.389521], "includesElement__electronegativity_allred-rochow": [0.0004302985, 0.0003084126], "includesElement__electronegativity_cottrell-sutton": [0.22818, 0.1891451], "includesElement__electronegativity_ghosh": [0.2068208, 0.178503], "includesElement__electronegativity_gordy": [0.05206612, 0.03577586], "includesElement__electronegativity_mulliken": [5.2965, 4.770602], "includesElement__electronegativity_nagle": [0.5503212, 0.4750986], "includesElement__electronegativity_pauling": [2.18, 1.9], "includesElement__electronegativity_sanderson": [0.8253373, 0.3468158], "includesElement__en_ghosh": [0.2068208, 0.178503], "includesElement__en_pauling": [2.18, 1.9], "includesElement__evaporation_heat": [32.4, 383.0], "includesElement__glawe_number": [90, 85], "includesElement__group_id": [15, 14], "includesElement__heat_of_formation": [302.5, 450.0], "includesElement__is_radioactive": [false], "includesElement__lattice_constant": [4.13, 5.43], "includesElement__mendeleev_number": [95, 88], "includesElement__molar_heat_capacity": [24.64, 19.99], "includesElement__period": [4, 3], "includesElement__pettifor_number": [89, 85], "includesElement__specific_heat_capacity": [0.329, 0.712], "includesElement__vdw_radius": [185.0, 210.0], "includesElement__vdw_radius_alvarez": [188.0, 219.0], "includesElement__vdw_radius_mm3": [236.0, 229.0], "includesElement__vdw_radius_uff": [423.0, 429.5], "includesElement__abundance_sea": [0.0037, 2.2], "includesElement__atomic_weight_uncertainty": [6e-06], "includesElement__c6_gb": [260.0, 308.0], "includesElement__covalent_radius_bragg": [126.0, 117.0], "includesElement__electronegativity_allen": [13.08, 11.33], "includesElement__en_allen": [13.08, 11.33], "includesElement__metallic_radius": [121.0, 117.0], "includesElement__metallic_radius_c12": [148.0, 138.0], "includesElement__vdw_radius_batsanov": [205.0, 210.0], "includesElement__c6": [246.0, 305.0], "includesElement__is_monoisotopic": [true], "includesElement__vdw_radius_dreiding": [415.0, 427.0], "includesElement__vdw_radius_bondi": [185.0, 210.0], "includesElement__discovery_year": [1824], "includesElement__fusion_heat": [50.6], "includesElement__thermal_conductivity": [149.0], "includesElement__gas_basicity": [814.1], "includesElement__proton_affinity": [837.0], "formula": ["As8Si4"], "spacegroup": ["205"], "thermalConductivity": [2.61752], "icsd": ["24801"], "band_gap": [0.0], "density": [5.196471], "density_atomic": [18.95245], "deprecated": [false], "efermi": [6.405382], "energy_above_hull": [0.1177956], "energy_per_atom": [-12.72108], "formation_energy_per_atom": [0.008531522], "is_gap_direct": [false], "is_magnetic": [false], "is_metal": [true], "is_stable": [false], "nelements": [2], "nsites": [12], "num_magnetic_sites": [0], "num_unique_magnetic_sites": [0], "theoretical": [false], "total_magnetization": [3.93e-05], "total_magnetization_normalized_formula_units": [9.825e-06], "total_magnetization_normalized_vol": [1.728009e-07], "uncorrected_energy_per_atom": [-4.867808], "volume": [227.4294]}