{"includesElement": ["", "B", "Re"], "includesElement___series_id": [5, 8], "includesElement__abundance_crust": [10.0, 0.0007], "includesElement__atomic_number": [5, 75], "includesElement__atomic_radius": [85.0, 135.0], "includesElement__atomic_radius_rahm": [205.0, 249.0], "includesElement__atomic_volume": [4.6, 8.85], "includesElement__atomic_weight": [10.81, 186.207], "includesElement__covalent_radius_cordero": [84.0, 151.0], "includesElement__covalent_radius_pyykko": [85.0, 131.0], "includesElement__covalent_radius_pyykko_double": [78.0, 119.0], "includesElement__covalent_radius_pyykko_triple": [73.0, 110.0], "includesElement__density": [2.34, 20.8], "includesElement__dipole_polarizability": [20.5, 62.0], "includesElement__dipole_polarizability_unc": [0.1, 3.0], "includesElement__discovery_year": [1808, 1925], "includesElement__electron_affinity": [0.279723, 0.15], "includesElement__electronegativity_allred-rochow": [0.0003598616, 0.000209778], "includesElement__electronegativity_cottrell-sutton": [0.1748949, 0.1657737], "includesElement__electronegativity_ghosh": [0.184886, 0.2435164], "includesElement__electronegativity_gordy": [0.03058824, 0.02748092], "includesElement__electronegativity_mulliken": [4.288871, 3.99176], "includesElement__electronegativity_nagle": [0.5269739, 0.4833208], "includesElement__electronegativity_pauling": [2.04, 1.9], "includesElement__electronegativity_sanderson": [0.2546274, 1.174592], "includesElement__en_ghosh": [0.184886, 0.2435164], "includesElement__en_pauling": [2.04, 1.9], "includesElement__evaporation_heat": [504.5, 704.0], "includesElement__fusion_heat": [23.6, 34.0], "includesElement__glawe_number": [86, 58], "includesElement__group_id": [13, 7], "includesElement__heat_of_formation": [565.0, 774.0], "includesElement__is_radioactive": [false], "includesElement__lattice_constant": [8.73, 2.76], "includesElement__mendeleev_number": [81, 57], "includesElement__molar_heat_capacity": [11.087, 25.48], "includesElement__period": [2, 6], "includesElement__pettifor_number": [86, 59], "includesElement__specific_heat_capacity": [1.026, 0.137], "includesElement__vdw_radius": [192.0, 216.0], "includesElement__vdw_radius_alvarez": [191.0, 249.0], "includesElement__vdw_radius_mm3": [215.0, 237.0], "includesElement__vdw_radius_uff": [408.3, 295.4], "includesElement__abundance_sea": [4.44, 4e-06], "includesElement__c6_gb": [99.2, 663.0], "includesElement__electronegativity_allen": [12.13, 9.46], "includesElement__en_allen": [12.13, 9.46], "includesElement__metallic_radius": [80.0, 128.0], "includesElement__metallic_radius_c12": [98.0, 137.0], "includesElement__thermal_conductivity": [27.4, 48.0], "includesElement__vdw_radius_batsanov": [180.0, 205.0], "includesElement__c6": [99.5], "includesElement__vdw_radius_dreiding": [402.0], "includesElement__vdw_radius_truhlar": [192.0], "includesElement__atomic_weight_uncertainty": [0.001], "formula": ["B4Re2"], "spacegroup": ["194"], "thermalConductivity": [46.7336], "icsd": ["162271"], "band_gap": [0.0], "density": [12.62251], "density_atomic": [9.113563], "deprecated": [false], "efermi": [7.776051], "energy_above_hull": [0.0], "energy_per_atom": [-22.81644], "formation_energy_per_atom": [-0.4486658], "homogeneous_poisson": [0.178], "is_gap_direct": [false], "is_magnetic": [false], "is_metal": [true], "is_stable": [true], "nelements": [2], "nsites": [6], "num_magnetic_sites": [0], "num_unique_magnetic_sites": [0], "theoretical": [false], "total_magnetization": [2.3e-06], "total_magnetization_normalized_formula_units": [1.15e-06], "total_magnetization_normalized_vol": [4.206185e-08], "uncorrected_energy_per_atom": [-22.81644], "universal_anisotropy": [0.234], "volume": [54.68138], "equilibrium_reaction_energy_per_atom": [-0.3540425]}