{"includesElement": ["", "Cu", "Au"], "includesElement___series_id": [8], "includesElement__abundance_crust": [60.0, 0.004], "includesElement__atomic_number": [29, 79], "includesElement__atomic_radius": [135.0], "includesElement__atomic_radius_rahm": [217.0, 226.0], "includesElement__atomic_volume": [7.1, 10.2], "includesElement__atomic_weight": [63.546, 196.9666], "includesElement__covalent_radius_cordero": [132.0, 136.0], "includesElement__covalent_radius_pyykko": [112.0, 124.0], "includesElement__covalent_radius_pyykko_double": [115.0, 121.0], "includesElement__covalent_radius_pyykko_triple": [120.0, 123.0], "includesElement__density": [8.96, 19.3], "includesElement__dipole_polarizability": [46.5, 36.0], "includesElement__dipole_polarizability_unc": [0.5, 3.0], "includesElement__electron_affinity": [1.235, 2.30863], "includesElement__electronegativity_allred-rochow": [0.0002949617, 0.0002406348], "includesElement__electronegativity_cottrell-sutton": [0.1817573, 0.1727388], "includesElement__electronegativity_ghosh": [0.1511716, 0.26137], "includesElement__electronegativity_gordy": [0.03303571, 0.02983871], "includesElement__electronegativity_mulliken": [4.48069, 5.767091], "includesElement__electronegativity_nagle": [0.6184623, 0.67354], "includesElement__electronegativity_pauling": [1.9, 2.4], "includesElement__electronegativity_sanderson": [0.9175542, 1.426701], "includesElement__en_ghosh": [0.1511716, 0.26137], "includesElement__en_pauling": [1.9, 2.4], "includesElement__evaporation_heat": [304.6, 340.0], "includesElement__fusion_heat": [13.01, 12.68], "includesElement__glawe_number": [68, 66], "includesElement__group_id": [11], "includesElement__heat_of_formation": [337.4, 368.2], "includesElement__is_radioactive": [false], "includesElement__lattice_constant": [3.61, 4.08], "includesElement__mendeleev_number": [71, 73], "includesElement__molar_heat_capacity": [24.44, 25.418], "includesElement__period": [4, 6], "includesElement__pettifor_number": [72, 70], "includesElement__specific_heat_capacity": [0.385, 0.129], "includesElement__vdw_radius": [196.0, 214.0], "includesElement__vdw_radius_alvarez": [238.0, 232.0], "includesElement__vdw_radius_mm3": [226.0, 243.0], "includesElement__vdw_radius_uff": [349.5, 329.3], "includesElement__abundance_sea": [0.00025, 4e-06], "includesElement__atomic_weight_uncertainty": [0.003, 5e-06], "includesElement__c6_gb": [264.0, 427.0], "includesElement__covalent_radius_bragg": [137.0], "includesElement__electronegativity_allen": [10.96, 11.33], "includesElement__en_allen": [10.96, 11.33], "includesElement__metallic_radius": [118.0, 134.0], "includesElement__metallic_radius_c12": [128.0, 144.0], "includesElement__thermal_conductivity": [401.0, 318.0], "includesElement__vdw_radius_batsanov": [200.0, 210.0], "includesElement__c6": [253.0], "includesElement__gas_basicity": [632.4], "includesElement__proton_affinity": [655.3], "includesElement__is_monoisotopic": [true], "formula": ["Au3Cu1"], "spacegroup": ["221"], "thermalConductivity": [1.63267], "icsd": ["107220"], "band_gap": [0.0], "density": [16.81695], "density_atomic": [16.15532], "deprecated": [false], "efermi": [5.444743], "energy_above_hull": [0.0064345], "energy_per_atom": [-3.497847], "formation_energy_per_atom": [-0.01763425], "homogeneous_poisson": [0.417], "is_gap_direct": [false], "is_magnetic": [false], "is_metal": [true], "is_stable": [false], "nelements": [2], "nsites": [4], "num_magnetic_sites": [0], "num_unique_magnetic_sites": [0], "theoretical": [false], "total_magnetization": [1e-07], "total_magnetization_normalized_formula_units": [1e-07], "total_magnetization_normalized_vol": [1.547478e-09], "uncorrected_energy_per_atom": [-40.67481], "universal_anisotropy": [1.198], "volume": [64.62128]}