{"includesElement": ["", "Ca", "B"], "includesElement___series_id": [4, 5], "includesElement__abundance_crust": [41500.0, 10.0], "includesElement__atomic_number": [20, 5], "includesElement__atomic_radius": [180.0, 85.0], "includesElement__atomic_radius_rahm": [270.0, 205.0], "includesElement__atomic_volume": [29.9, 4.6], "includesElement__atomic_weight": [40.078, 10.81], "includesElement__covalent_radius_cordero": [176.0, 84.0], "includesElement__covalent_radius_pyykko": [171.0, 85.0], "includesElement__covalent_radius_pyykko_double": [147.0, 78.0], "includesElement__covalent_radius_pyykko_triple": [133.0, 73.0], "includesElement__density": [1.54, 2.34], "includesElement__dipole_polarizability": [160.8, 20.5], "includesElement__dipole_polarizability_unc": [4.0, 0.1], "includesElement__discovery_year": [1808], "includesElement__electron_affinity": [0.02455, 0.279723], "includesElement__electronegativity_allred-rochow": [9.746589e-05, 0.0003598616], "includesElement__electronegativity_cottrell-sutton": [0.1290994, 0.1748949], "includesElement__electronegativity_ghosh": [0.1154119, 0.184886], "includesElement__electronegativity_gordy": [0.01666667, 0.03058824], "includesElement__electronegativity_mulliken": [3.068853, 4.288871], "includesElement__electronegativity_nagle": [0.2316939, 0.5269739], "includesElement__electronegativity_pauling": [1.0, 2.04], "includesElement__electronegativity_sanderson": [0.1901577, 0.2546274], "includesElement__en_ghosh": [0.1154119, 0.184886], "includesElement__en_pauling": [1.0, 2.04], "includesElement__evaporation_heat": [153.6, 504.5], "includesElement__fusion_heat": [9.2, 23.6], "includesElement__glawe_number": [16, 86], "includesElement__group_id": [2, 13], "includesElement__heat_of_formation": [177.8, 565.0], "includesElement__is_radioactive": [false], "includesElement__lattice_constant": [5.58, 8.73], "includesElement__mendeleev_number": [7, 81], "includesElement__molar_heat_capacity": [25.929, 11.087], "includesElement__period": [4, 2], "includesElement__pettifor_number": [16, 86], "includesElement__specific_heat_capacity": [0.647, 1.026], "includesElement__vdw_radius": [231.0, 192.0], "includesElement__vdw_radius_alvarez": [262.0, 191.0], "includesElement__vdw_radius_mm3": [281.0, 215.0], "includesElement__vdw_radius_uff": [339.9, 408.3], "includesElement__abundance_sea": [412.0, 4.44], "includesElement__atomic_weight_uncertainty": [0.004], "includesElement__c6_gb": [2230.0, 99.2], "includesElement__covalent_radius_bragg": [170.0], "includesElement__electronegativity_allen": [6.113, 12.13], "includesElement__en_allen": [6.113, 12.13], "includesElement__metallic_radius": [174.0, 80.0], "includesElement__metallic_radius_c12": [197.0, 98.0], "includesElement__vdw_radius_batsanov": [240.0, 180.0], "includesElement__c6": [2163.0, 99.5], "includesElement__vdw_radius_truhlar": [231.0, 192.0], "includesElement__thermal_conductivity": [27.4], "includesElement__vdw_radius_dreiding": [402.0], "formula": ["B6Ca1"], "spacegroup": ["221"], "thermalConductivity": [28.2052], "icsd": ["26753"], "band_gap": [0.0], "density": [2.458647], "density_atomic": [10.12541], "deprecated": [false], "efermi": [4.738354], "energy_above_hull": [0.0], "energy_per_atom": [-7.777312], "formation_energy_per_atom": [-0.4749662], "homogeneous_poisson": [0.258], "is_gap_direct": [false], "is_magnetic": [false], "is_metal": [true], "is_stable": [true], "nelements": [2], "nsites": [7], "num_magnetic_sites": [0], "num_unique_magnetic_sites": [0], "theoretical": [false], "total_magnetization": [0.0], "total_magnetization_normalized_formula_units": [0.0], "total_magnetization_normalized_vol": [0.0], "uncorrected_energy_per_atom": [-7.777312], "universal_anisotropy": [3.968], "volume": [70.87785], "equilibrium_reaction_energy_per_atom": [-0.1459324]}