{"includesElement": ["", "Ge", "S"], "includesElement___series_id": [5, 1], "includesElement__abundance_crust": [1.5, 350.0], "includesElement__atomic_number": [32, 16], "includesElement__atomic_radius": [125.0, 100.0], "includesElement__atomic_radius_rahm": [234.0, 214.0], "includesElement__atomic_volume": [13.6, 15.5], "includesElement__atomic_weight": [72.63, 32.06], "includesElement__covalent_radius_cordero": [120.0, 105.0], "includesElement__covalent_radius_pyykko": [121.0, 103.0], "includesElement__covalent_radius_pyykko_double": [111.0, 94.0], "includesElement__covalent_radius_pyykko_triple": [114.0, 95.0], "includesElement__density": [5.3234, 2.07], "includesElement__dipole_polarizability": [40.0, 19.4], "includesElement__dipole_polarizability_unc": [1.0, 0.1], "includesElement__discovery_year": [1886], "includesElement__electron_affinity": [1.232712, 2.077104], "includesElement__electronegativity_allred-rochow": [0.0003859026, 0.0005137148], "includesElement__electronegativity_cottrell-sutton": [0.2160884, 0.2300274], "includesElement__electronegativity_ghosh": [0.1895892, 0.23596], "includesElement__electronegativity_gordy": [0.04669421, 0.05291262], "includesElement__electronegativity_mulliken": [4.566073, 6.218557], "includesElement__electronegativity_nagle": [0.4641589, 0.6762644], "includesElement__electronegativity_pauling": [2.01, 2.58], "includesElement__electronegativity_sanderson": [0.8001471, 0.6397251], "includesElement__en_ghosh": [0.1895892, 0.23596], "includesElement__en_pauling": [2.01, 2.58], "includesElement__evaporation_heat": [328.0, 10.5], "includesElement__fusion_heat": [36.8, 1.23], "includesElement__glawe_number": [84, 96], "includesElement__group_id": [14, 16], "includesElement__heat_of_formation": [372.0, 277.17], "includesElement__is_radioactive": [false], "includesElement__lattice_constant": [5.66, 10.47], "includesElement__mendeleev_number": [89, 100], "includesElement__molar_heat_capacity": [23.222, 22.7], "includesElement__period": [4, 3], "includesElement__pettifor_number": [84, 94], "includesElement__specific_heat_capacity": [0.32, 0.708], "includesElement__vdw_radius": [211.0, 180.0], "includesElement__vdw_radius_alvarez": [229.0, 189.0], "includesElement__vdw_radius_mm3": [244.0, 215.0], "includesElement__vdw_radius_uff": [428.0, 403.5], "includesElement__abundance_sea": [5e-05, 905.0], "includesElement__atomic_weight_uncertainty": [0.008], "includesElement__c6_gb": [365.0, 140.0], "includesElement__electronegativity_allen": [11.8, 15.31], "includesElement__en_allen": [11.8, 15.31], "includesElement__metallic_radius": [124.0, 104.0], "includesElement__metallic_radius_c12": [144.0, 127.0], "includesElement__thermal_conductivity": [60.2, 0.27], "includesElement__vdw_radius_batsanov": [210.0, 180.0], "includesElement__c6": [354.0, 134.0], "includesElement__vdw_radius_dreiding": [427.0, 403.0], "includesElement__vdw_radius_truhlar": [211.0], "includesElement__covalent_radius_bragg": [102.0], "includesElement__gas_basicity": [640.2], "includesElement__proton_affinity": [664.3], "includesElement__vdw_radius_bondi": [180.0], "includesElement__vdw_radius_rt": [181.0], "formula": ["Ge2S4"], "spacegroup": ["122"], "thermalConductivity": [6.16115], "icsd": ["167194"], "band_gap": [2.5975], "density": [3.134755], "density_atomic": [24.14989], "deprecated": [false], "efermi": [1.888002], "energy_above_hull": [0.01759344], "energy_per_atom": [-4.945043], "formation_energy_per_atom": [-0.6451278], "homogeneous_poisson": [0.199], "is_gap_direct": [false], "is_magnetic": [false], "is_metal": [false], "is_stable": [false], "nelements": [2], "nsites": [6], "num_magnetic_sites": [0], "num_unique_magnetic_sites": [0], "theoretical": [false], "total_magnetization": [0.0], "total_magnetization_normalized_formula_units": [0.0], "total_magnetization_normalized_vol": [0.0], "uncorrected_energy_per_atom": [-10.36627], "universal_anisotropy": [2.365], "volume": [144.8993], "cbm": [4.3027], "e_electronic": [5.558302], "e_ionic": [3.020369], "e_total": [8.578671], "n": [2.357605], "vbm": [1.7052], "e_ij_max": [0.12128]}