{"includesElement": ["", "Ba", "Ag"], "includesElement___series_id": [4, 8], "includesElement__abundance_crust": [425.0, 0.075], "includesElement__atomic_number": [56, 47], "includesElement__atomic_radius": [215.0, 160.0], "includesElement__atomic_radius_rahm": [293.0, 225.0], "includesElement__atomic_volume": [39.0, 10.3], "includesElement__atomic_weight": [137.327, 107.8682], "includesElement__covalent_radius_cordero": [215.0, 145.0], "includesElement__covalent_radius_pyykko": [196.0, 128.0], "includesElement__covalent_radius_pyykko_double": [161.0, 139.0], "includesElement__covalent_radius_pyykko_triple": [149.0, 137.0], "includesElement__density": [3.62, 10.5], "includesElement__dipole_polarizability": [272.0, 55.0], "includesElement__dipole_polarizability_unc": [10.0, 8.0], "includesElement__discovery_year": [1808], "includesElement__electron_affinity": [0.14462, 1.302], "includesElement__electronegativity_allred-rochow": [7.418784e-05, 0.0002258301], "includesElement__electronegativity_cottrell-sutton": [0.1205853, 0.1700184], "includesElement__electronegativity_ghosh": [0.1586786, 0.1472165], "includesElement__electronegativity_gordy": [0.01454082, 0.02890625], "includesElement__electronegativity_mulliken": [2.678142, 4.439117], "includesElement__electronegativity_nagle": [0.1944556, 0.5848035], "includesElement__electronegativity_pauling": [0.89, 1.93], "includesElement__electronegativity_sanderson": [0.3032951, 0.9437955], "includesElement__en_ghosh": [0.1586786, 0.1472165], "includesElement__en_pauling": [0.89, 1.93], "includesElement__evaporation_heat": [142.0, 254.1], "includesElement__fusion_heat": [7.66, 11.95], "includesElement__glawe_number": [14, 67], "includesElement__group_id": [2, 11], "includesElement__heat_of_formation": [179.1, 284.9], "includesElement__is_radioactive": [false], "includesElement__lattice_constant": [5.02, 4.09], "includesElement__mendeleev_number": [9, 72], "includesElement__molar_heat_capacity": [28.07, 25.35], "includesElement__period": [6, 5], "includesElement__pettifor_number": [14, 71], "includesElement__specific_heat_capacity": [0.204, 0.235], "includesElement__vdw_radius": [268.0, 211.0], "includesElement__vdw_radius_alvarez": [303.0, 253.0], "includesElement__vdw_radius_mm3": [307.0, 243.0], "includesElement__vdw_radius_uff": [370.3, 314.8], "includesElement__abundance_sea": [0.013, 4e-05], "includesElement__atomic_weight_uncertainty": [0.007, 0.0002], "includesElement__c6_gb": [5540.0, 341.0], "includesElement__covalent_radius_bragg": [210.0, 177.0], "includesElement__electronegativity_allen": [5.211, 11.05], "includesElement__en_allen": [5.211, 11.05], "includesElement__metallic_radius": [198.0, 134.0], "includesElement__metallic_radius_c12": [222.0, 144.0], "includesElement__vdw_radius_batsanov": [270.0, 210.0], "includesElement__vdw_radius_truhlar": [268.0], "includesElement__thermal_conductivity": [429.0], "formula": ["Ag4Ba4"], "spacegroup": ["62"], "thermalConductivity": [0.713274], "icsd": ["260623"], "band_gap": [0.0], "density": [5.584628], "density_atomic": [36.4533], "deprecated": [false], "efermi": [2.413662], "energy_above_hull": [0.0], "energy_per_atom": [-2.656952], "formation_energy_per_atom": [-0.2759958], "is_gap_direct": [false], "is_magnetic": [false], "is_metal": [true], "is_stable": [true], "nelements": [2], "nsites": [8], "num_magnetic_sites": [0], "num_unique_magnetic_sites": [0], "theoretical": [false], "total_magnetization": [3e-07], "total_magnetization_normalized_formula_units": [7.5e-08], "total_magnetization_normalized_vol": [1.028713e-09], "uncorrected_energy_per_atom": [-24.1539], "volume": [291.6264], "equilibrium_reaction_energy_per_atom": [-0.02740013]}