{"includesElement": ["", "N", "Re"], "includesElement___series_id": [1, 8], "includesElement__abundance_crust": [19.0, 0.0007], "includesElement__atomic_number": [7, 75], "includesElement__atomic_radius": [65.0, 135.0], "includesElement__atomic_radius_rahm": [179.0, 249.0], "includesElement__atomic_volume": [17.3, 8.85], "includesElement__atomic_weight": [14.007, 186.207], "includesElement__covalent_radius_cordero": [71.0, 151.0], "includesElement__covalent_radius_pyykko": [71.0, 131.0], "includesElement__covalent_radius_pyykko_double": [60.0, 119.0], "includesElement__covalent_radius_pyykko_triple": [54.0, 110.0], "includesElement__density": [0.001145, 20.8], "includesElement__dipole_polarizability": [7.4, 62.0], "includesElement__dipole_polarizability_unc": [0.2, 3.0], "includesElement__discovery_year": [1772, 1925], "includesElement__electron_affinity": [-1.4, 0.15], "includesElement__electronegativity_allred-rochow": [0.000773656, 0.000209778], "includesElement__electronegativity_cottrell-sutton": [0.2343706, 0.1657737], "includesElement__electronegativity_ghosh": [0.26493, 0.2435164], "includesElement__electronegativity_gordy": [0.05492958, 0.02748092], "includesElement__electronegativity_mulliken": [6.567065, 3.99176], "includesElement__electronegativity_nagle": [0.8774979, 0.4833208], "includesElement__electronegativity_pauling": [3.04, 1.9], "includesElement__electronegativity_sanderson": [0.577482, 1.174592], "includesElement__en_ghosh": [0.26493, 0.2435164], "includesElement__en_pauling": [3.04, 1.9], "includesElement__glawe_number": [88, 58], "includesElement__group_id": [15, 7], "includesElement__heat_of_formation": [472.44, 774.0], "includesElement__is_radioactive": [false], "includesElement__lattice_constant": [4.039, 2.76], "includesElement__mendeleev_number": [93, 57], "includesElement__molar_heat_capacity": [29.124, 25.48], "includesElement__period": [2, 6], "includesElement__pettifor_number": [100, 59], "includesElement__specific_heat_capacity": [1.04, 0.137], "includesElement__vdw_radius": [155.0, 216.0], "includesElement__vdw_radius_alvarez": [166.0, 249.0], "includesElement__vdw_radius_mm3": [193.0, 237.0], "includesElement__vdw_radius_uff": [366.0, 295.4], "includesElement__abundance_sea": [0.5, 4e-06], "includesElement__c6_gb": [25.7, 663.0], "includesElement__covalent_radius_bragg": [65.0], "includesElement__electronegativity_allen": [18.13, 9.46], "includesElement__en_allen": [18.13, 9.46], "includesElement__metallic_radius_c12": [53.0, 137.0], "includesElement__thermal_conductivity": [0.026, 48.0], "includesElement__vdw_radius_batsanov": [160.0, 205.0], "includesElement__c6": [24.2], "includesElement__vdw_radius_dreiding": [366.21], "includesElement__gas_basicity": [318.7], "includesElement__proton_affinity": [342.2], "includesElement__vdw_radius_bondi": [155.0], "includesElement__vdw_radius_rt": [164.0], "includesElement__evaporation_heat": [704.0], "includesElement__fusion_heat": [34.0], "includesElement__atomic_weight_uncertainty": [0.001], "includesElement__metallic_radius": [128.0], "formula": ["N4Re2"], "spacegroup": ["127"], "thermalConductivity": [32.1459], "icsd": ["187442"], "band_gap": [0.0], "density": [13.79154], "density_atomic": [8.597576], "deprecated": [false], "efermi": [9.620825], "energy_above_hull": [0.5030553], "energy_per_atom": [-23.09253], "formation_energy_per_atom": [0.4635118], "homogeneous_poisson": [0.219], "is_gap_direct": [false], "is_magnetic": [false], "is_metal": [true], "is_stable": [false], "nelements": [2], "nsites": [6], "num_magnetic_sites": [0], "num_unique_magnetic_sites": [0], "theoretical": [true], "total_magnetization": [0.0107378], "total_magnetization_normalized_formula_units": [0.0053689], "total_magnetization_normalized_vol": [0.0002081556], "uncorrected_energy_per_atom": [-9.051629], "universal_anisotropy": [0.203], "volume": [51.58545]}