{"includesElement": ["", "As", "Al"], "includesElement___series_id": [5, 7], "includesElement__abundance_crust": [1.8, 82300.0], "includesElement__atomic_number": [33, 13], "includesElement__atomic_radius": [115.0, 125.0], "includesElement__atomic_radius_rahm": [231.0, 239.0], "includesElement__atomic_volume": [13.1, 10.0], "includesElement__atomic_weight": [74.92159, 26.98154], "includesElement__covalent_radius_cordero": [119.0, 121.0], "includesElement__covalent_radius_pyykko": [121.0, 126.0], "includesElement__covalent_radius_pyykko_double": [114.0, 113.0], "includesElement__covalent_radius_pyykko_triple": [106.0, 111.0], "includesElement__density": [5.75, 2.7], "includesElement__dipole_polarizability": [30.0, 57.8], "includesElement__dipole_polarizability_unc": [1.0], "includesElement__electron_affinity": [0.804, 0.43283], "includesElement__electronegativity_allred-rochow": [0.0004302985, 0.0002204586], "includesElement__electronegativity_cottrell-sutton": [0.22818, 0.1666667], "includesElement__electronegativity_ghosh": [0.2068208, 0.150078], "includesElement__electronegativity_gordy": [0.05206612, 0.02777778], "includesElement__electronegativity_mulliken": [5.2965, 3.209299], "includesElement__electronegativity_nagle": [0.5503212, 0.3730192], "includesElement__electronegativity_pauling": [2.18, 1.61], "includesElement__electronegativity_sanderson": [0.8253373, 0.2360927], "includesElement__en_ghosh": [0.2068208, 0.150078], "includesElement__en_pauling": [2.18, 1.61], "includesElement__evaporation_heat": [32.4, 284.1], "includesElement__glawe_number": [90, 78], "includesElement__group_id": [15, 13], "includesElement__heat_of_formation": [302.5, 330.9], "includesElement__is_radioactive": [false], "includesElement__lattice_constant": [4.13, 4.05], "includesElement__mendeleev_number": [95, 82], "includesElement__molar_heat_capacity": [24.64, 24.2], "includesElement__period": [4, 3], "includesElement__pettifor_number": [89, 80], "includesElement__specific_heat_capacity": [0.329, 0.897], "includesElement__vdw_radius": [185.0, 184.0], "includesElement__vdw_radius_alvarez": [188.0, 225.0], "includesElement__vdw_radius_mm3": [236.0], "includesElement__vdw_radius_uff": [423.0, 449.9], "includesElement__abundance_sea": [0.0037, 0.002], "includesElement__atomic_weight_uncertainty": [6e-06, 7e-07], "includesElement__c6_gb": [260.0, 520.0], "includesElement__covalent_radius_bragg": [126.0, 135.0], "includesElement__electronegativity_allen": [13.08, 9.539], "includesElement__en_allen": [13.08, 9.539], "includesElement__metallic_radius": [121.0, 125.0], "includesElement__metallic_radius_c12": [148.0, 143.0], "includesElement__vdw_radius_batsanov": [205.0, 210.0], "includesElement__c6": [246.0, 528.0], "includesElement__is_monoisotopic": [true], "includesElement__vdw_radius_dreiding": [415.0, 439.0], "includesElement__vdw_radius_bondi": [185.0], "includesElement__discovery_year": [1825], "includesElement__fusion_heat": [10.75], "includesElement__thermal_conductivity": [237.0], "includesElement__vdw_radius_truhlar": [184.0], "formula": ["Al1As1", "AlAs"], "mp_id": ["mp-2172"], "spacegroup": ["216"], "thermalConductivity": [11.6444, 77.82568, 77.93751], "icsd": ["185081"], "band_gap": [1.5037], "density": [3.701818], "density_atomic": [22.85555], "deprecated": [false], "efermi": [3.581284], "energy_above_hull": [0.0], "energy_per_atom": [-11.34686], "formation_energy_per_atom": [-0.6270428], "homogeneous_poisson": [0.253], "is_gap_direct": [false], "is_magnetic": [false], "is_metal": [false], "is_stable": [true], "nelements": [2], "nsites": [2], "num_magnetic_sites": [0], "num_unique_magnetic_sites": [0], "theoretical": [false], "total_magnetization": [0.0], "total_magnetization_normalized_formula_units": [0.0], "total_magnetization_normalized_vol": [0.0], "uncorrected_energy_per_atom": [-11.34686], "universal_anisotropy": [0.481], "volume": [45.7111], "cbm": [5.0668], "e_electronic": [9.510797], "e_ionic": [2.027106], "e_total": [11.5379], "equilibrium_reaction_energy_per_atom": [-0.6270428], "n": [3.083958], "vbm": [3.5631], "e_ij_max": [0.07633333]}