{"includesElement": ["", "Ca", "Si"], "includesElement___series_id": [4, 5], "includesElement__abundance_crust": [41500.0, 282000.0], "includesElement__atomic_number": [20, 14], "includesElement__atomic_radius": [180.0, 110.0], "includesElement__atomic_radius_rahm": [270.0, 232.0], "includesElement__atomic_volume": [29.9, 12.1], "includesElement__atomic_weight": [40.078, 28.085], "includesElement__covalent_radius_cordero": [176.0, 111.0], "includesElement__covalent_radius_pyykko": [171.0, 116.0], "includesElement__covalent_radius_pyykko_double": [147.0, 107.0], "includesElement__covalent_radius_pyykko_triple": [133.0, 102.0], "includesElement__density": [1.54, 2.3296], "includesElement__dipole_polarizability": [160.8, 37.3], "includesElement__dipole_polarizability_unc": [4.0, 0.7], "includesElement__discovery_year": [1808, 1824], "includesElement__electron_affinity": [0.02455, 1.389521], "includesElement__electronegativity_allred-rochow": [9.746589e-05, 0.0003084126], "includesElement__electronegativity_cottrell-sutton": [0.1290994, 0.1891451], "includesElement__electronegativity_ghosh": [0.1154119, 0.178503], "includesElement__electronegativity_gordy": [0.01666667, 0.03577586], "includesElement__electronegativity_mulliken": [3.068853, 4.770602], "includesElement__electronegativity_nagle": [0.2316939, 0.4750986], "includesElement__electronegativity_pauling": [1.0, 1.9], "includesElement__electronegativity_sanderson": [0.1901577, 0.3468158], "includesElement__en_ghosh": [0.1154119, 0.178503], "includesElement__en_pauling": [1.0, 1.9], "includesElement__evaporation_heat": [153.6, 383.0], "includesElement__fusion_heat": [9.2, 50.6], "includesElement__glawe_number": [16, 85], "includesElement__group_id": [2, 14], "includesElement__heat_of_formation": [177.8, 450.0], "includesElement__is_radioactive": [false], "includesElement__lattice_constant": [5.58, 5.43], "includesElement__mendeleev_number": [7, 88], "includesElement__molar_heat_capacity": [25.929, 19.99], "includesElement__period": [4, 3], "includesElement__pettifor_number": [16, 85], "includesElement__specific_heat_capacity": [0.647, 0.712], "includesElement__vdw_radius": [231.0, 210.0], "includesElement__vdw_radius_alvarez": [262.0, 219.0], "includesElement__vdw_radius_mm3": [281.0, 229.0], "includesElement__vdw_radius_uff": [339.9, 429.5], "includesElement__abundance_sea": [412.0, 2.2], "includesElement__atomic_weight_uncertainty": [0.004], "includesElement__c6_gb": [2230.0, 308.0], "includesElement__covalent_radius_bragg": [170.0, 117.0], "includesElement__electronegativity_allen": [6.113, 11.33], "includesElement__en_allen": [6.113, 11.33], "includesElement__metallic_radius": [174.0, 117.0], "includesElement__metallic_radius_c12": [197.0, 138.0], "includesElement__vdw_radius_batsanov": [240.0, 210.0], "includesElement__c6": [2163.0, 305.0], "includesElement__vdw_radius_truhlar": [231.0], "includesElement__thermal_conductivity": [149.0], "includesElement__vdw_radius_dreiding": [427.0], "includesElement__gas_basicity": [814.1], "includesElement__proton_affinity": [837.0], "includesElement__vdw_radius_bondi": [210.0], "formula": ["Ca2Si4"], "spacegroup": ["141"], "thermalConductivity": [5.56924], "icsd": ["1453"], "band_gap": [0.0], "density": [2.609058], "density_atomic": [20.41927], "deprecated": [false], "efermi": [5.968678], "energy_above_hull": [0.02890381], "energy_per_atom": [-8.593241], "formation_energy_per_atom": [-0.3979668], "homogeneous_poisson": [0.289], "is_gap_direct": [false], "is_magnetic": [false], "is_metal": [true], "is_stable": [false], "nelements": [2], "nsites": [6], "num_magnetic_sites": [0], "num_unique_magnetic_sites": [0], "theoretical": [false], "total_magnetization": [0.0], "total_magnetization_normalized_formula_units": [0.0], "total_magnetization_normalized_vol": [0.0], "uncorrected_energy_per_atom": [-8.593241], "universal_anisotropy": [1.492], "volume": [122.5156]}