{"includesElement": ["", "P", "Li", "N"], "includesElement___series_id": [1, 3], "includesElement__abundance_crust": [1050.0, 20.0, 19.0], "includesElement__atomic_number": [15, 3, 7], "includesElement__atomic_radius": [100.0, 145.0, 65.0], "includesElement__atomic_radius_rahm": [223.0, 220.0, 179.0], "includesElement__atomic_volume": [17.0, 13.1, 17.3], "includesElement__atomic_weight": [30.97376, 6.94, 14.007], "includesElement__covalent_radius_cordero": [107.0, 128.0, 71.0], "includesElement__covalent_radius_pyykko": [111.0, 133.0, 71.0], "includesElement__covalent_radius_pyykko_double": [102.0, 124.0, 60.0], "includesElement__covalent_radius_pyykko_triple": [94.0, 54.0], "includesElement__density": [1.823, 0.534, 0.001145], "includesElement__dipole_polarizability": [25.0, 164.1125, 7.4], "includesElement__dipole_polarizability_unc": [1.0, 0.0005, 0.2], "includesElement__discovery_year": [1669, 1817, 1772], "includesElement__electron_affinity": [0.746607, 0.618049, -1.4], "includesElement__electronegativity_allred-rochow": [0.0003895788, 7.3492e-05, 0.000773656], "includesElement__electronegativity_cottrell-sutton": [0.2079501, 0.09886575, 0.2343706], "includesElement__electronegativity_ghosh": [0.206931, 0.105093, 0.26493], "includesElement__electronegativity_gordy": [0.04324324, 0.009774436, 0.05492958], "includesElement__electronegativity_mulliken": [5.616646, 3.004882, 6.567065], "includesElement__electronegativity_nagle": [0.5848035, 0.1826499, 0.8774979], "includesElement__electronegativity_pauling": [2.19, 0.98, 3.04], "includesElement__electronegativity_sanderson": [0.4510269, 0.04886793, 0.577482], "includesElement__en_ghosh": [0.206931, 0.105093, 0.26493], "includesElement__en_pauling": [2.19, 0.98, 3.04], "includesElement__evaporation_heat": [49.8, 148.0], "includesElement__fusion_heat": [2.51, 2.89], "includesElement__glawe_number": [89, 12, 88], "includesElement__group_id": [15, 1], "includesElement__heat_of_formation": [316.5, 159.3, 472.44], "includesElement__is_radioactive": [false], "includesElement__lattice_constant": [7.17, 3.49, 4.039], "includesElement__mendeleev_number": [94, 1, 93], "includesElement__molar_heat_capacity": [23.824, 24.86, 29.124], "includesElement__period": [3, 2], "includesElement__pettifor_number": [90, 12, 100], "includesElement__specific_heat_capacity": [0.769, 3.582, 1.04], "includesElement__vdw_radius": [180.0, 182.0, 155.0], "includesElement__vdw_radius_alvarez": [190.0, 212.0, 166.0], "includesElement__vdw_radius_mm3": [222.0, 255.0, 193.0], "includesElement__vdw_radius_uff": [414.7, 245.1, 366.0], "includesElement__abundance_sea": [0.06, 0.18, 0.5], "includesElement__atomic_weight_uncertainty": [5e-09], "includesElement__c6_gb": [187.0, 1410.0, 25.7], "includesElement__electronegativity_allen": [13.33, 5.392, 18.13], "includesElement__en_allen": [13.33, 5.392, 18.13], "includesElement__metallic_radius": [110.0, 123.0], "includesElement__metallic_radius_c12": [128.0, 155.0, 53.0], "includesElement__vdw_radius_batsanov": [195.0, 220.0, 160.0], "includesElement__c6": [185.0, 1392.0, 24.2], "includesElement__is_monoisotopic": [true], "includesElement__vdw_radius_dreiding": [415.0, 366.21], "includesElement__gas_basicity": [604.8, 318.7], "includesElement__proton_affinity": [626.8, 342.2], "includesElement__vdw_radius_bondi": [180.0, 181.0, 155.0], "includesElement__covalent_radius_bragg": [150.0, 65.0], "includesElement__thermal_conductivity": [84.8, 0.026], "includesElement__vdw_radius_rt": [164.0], "formula": ["Li2N4P2"], "spacegroup": ["122"], "thermalConductivity": [22.25], "icsd": ["32713"], "band_gap": [3.8016], "density": [2.967136], "density_atomic": [9.224071], "deprecated": [false], "efermi": [4.467919], "energy_above_hull": [0.0], "energy_per_atom": [-8.437419], "formation_energy_per_atom": [-1.025848], "homogeneous_poisson": [0.202], "is_gap_direct": [false], "is_magnetic": [false], "is_metal": [false], "is_stable": [true], "nelements": [3], "nsites": [8], "num_magnetic_sites": [0], "num_unique_magnetic_sites": [0], "theoretical": [false], "total_magnetization": [0.0], "total_magnetization_normalized_formula_units": [0.0], "total_magnetization_normalized_vol": [0.0], "uncorrected_energy_per_atom": [-8.437419], "universal_anisotropy": [1.484], "volume": [73.79257], "cbm": [8.123], "e_electronic": [4.237684], "e_ionic": [5.129823], "e_total": [9.367507], "equilibrium_reaction_energy_per_atom": [-0.361747], "n": [2.058564], "vbm": [4.3214], "e_ij_max": [0.808354]}