{"includesElement": ["", "S", "Ta"], "includesElement___series_id": [1, 8], "includesElement__abundance_crust": [350.0, 2.0], "includesElement__atomic_number": [16, 73], "includesElement__atomic_radius": [100.0, 145.0], "includesElement__atomic_radius_rahm": [214.0, 258.0], "includesElement__atomic_volume": [15.5, 10.9], "includesElement__atomic_weight": [32.06, 180.9479], "includesElement__covalent_radius_cordero": [105.0, 170.0], "includesElement__covalent_radius_pyykko": [103.0, 146.0], "includesElement__covalent_radius_pyykko_double": [94.0, 126.0], "includesElement__covalent_radius_pyykko_triple": [95.0, 119.0], "includesElement__density": [2.07, 16.4], "includesElement__dipole_polarizability": [19.4, 74.0], "includesElement__dipole_polarizability_unc": [0.1, 20.0], "includesElement__electron_affinity": [2.077104, 0.322], "includesElement__electronegativity_allred-rochow": [0.0005137148, 0.0001548133], "includesElement__electronegativity_cottrell-sutton": [0.2300274, 0.1503421], "includesElement__electronegativity_ghosh": [0.23596, 0.234581], "includesElement__electronegativity_gordy": [0.05291262, 0.02260274], "includesElement__electronegativity_mulliken": [6.218557, 3.935785], "includesElement__electronegativity_nagle": [0.6762644, 0.4072985], "includesElement__electronegativity_pauling": [2.58, 1.5], "includesElement__electronegativity_sanderson": [0.6397251, 0.8358832], "includesElement__en_ghosh": [0.23596, 0.234581], "includesElement__en_pauling": [2.58, 1.5], "includesElement__evaporation_heat": [10.5, 758.0], "includesElement__fusion_heat": [1.23, 24.7], "includesElement__glawe_number": [96, 52], "includesElement__group_id": [16, 5], "includesElement__heat_of_formation": [277.17, 782.0], "includesElement__is_radioactive": [false], "includesElement__lattice_constant": [10.47, 3.31], "includesElement__mendeleev_number": [100, 49], "includesElement__molar_heat_capacity": [22.7, 25.36], "includesElement__period": [3, 6], "includesElement__pettifor_number": [94, 53], "includesElement__specific_heat_capacity": [0.708, 0.14], "includesElement__vdw_radius": [180.0, 222.0], "includesElement__vdw_radius_alvarez": [189.0, 253.0], "includesElement__vdw_radius_mm3": [215.0, 243.0], "includesElement__vdw_radius_uff": [403.5, 317.0], "includesElement__abundance_sea": [905.0, 2e-06], "includesElement__c6_gb": [140.0, 887.0], "includesElement__covalent_radius_bragg": [102.0], "includesElement__electronegativity_allen": [15.31, 7.93], "includesElement__en_allen": [15.31, 7.93], "includesElement__metallic_radius": [104.0, 134.0], "includesElement__metallic_radius_c12": [127.0, 146.0], "includesElement__thermal_conductivity": [0.27, 57.5], "includesElement__vdw_radius_batsanov": [180.0, 220.0], "includesElement__c6": [134.0], "includesElement__vdw_radius_dreiding": [403.0], "includesElement__gas_basicity": [640.2], "includesElement__proton_affinity": [664.3], "includesElement__vdw_radius_bondi": [180.0], "includesElement__vdw_radius_rt": [181.0], "includesElement__discovery_year": [1802], "includesElement__atomic_weight_uncertainty": [2e-05], "formula": ["S4Ta2"], "spacegroup": ["194"], "thermalConductivity": [9.51009, 10.7394], "icsd": ["169771", "651082"], "band_gap": [0.0], "density": [6.718365], "density_atomic": [20.19149], "deprecated": [false], "efermi": [4.344107], "energy_above_hull": [0.0009596617], "energy_per_atom": [-8.094022], "formation_energy_per_atom": [-1.379473], "homogeneous_poisson": [0.271], "is_gap_direct": [false], "is_magnetic": [false], "is_metal": [true], "is_stable": [false], "nelements": [2], "nsites": [6], "num_magnetic_sites": [0], "num_unique_magnetic_sites": [0], "theoretical": [false], "total_magnetization": [0.0031039], "total_magnetization_normalized_formula_units": [0.00155195], "total_magnetization_normalized_vol": [2.562053e-05], "uncorrected_energy_per_atom": [-22.72341], "universal_anisotropy": [43.849], "volume": [121.1489]}