{"includesElement": ["", "Mn", "Pt"], "includesElement___series_id": [8], "includesElement__abundance_crust": [950.0, 0.005], "includesElement__atomic_number": [25, 78], "includesElement__atomic_radius": [140.0, 135.0], "includesElement__atomic_radius_rahm": [242.0, 230.0], "includesElement__atomic_volume": [7.39, 9.1], "includesElement__atomic_weight": [54.93804, 195.084], "includesElement__covalent_radius_cordero": [150.0, 136.0], "includesElement__covalent_radius_pyykko": [119.0, 123.0], "includesElement__covalent_radius_pyykko_double": [105.0, 112.0], "includesElement__covalent_radius_pyykko_triple": [103.0, 110.0], "includesElement__density": [7.3, 21.5], "includesElement__dipole_polarizability": [68.0, 48.0], "includesElement__dipole_polarizability_unc": [9.0, 4.0], "includesElement__discovery_year": [1774, 1735], "includesElement__electronegativity_allred-rochow": [0.0002542193, 0.0002346487], "includesElement__electronegativity_cottrell-sutton": [0.1739313, 0.1698876], "includesElement__electronegativity_ghosh": [0.1352844, 0.25691], "includesElement__electronegativity_gordy": [0.0302521, 0.02886179], "includesElement__electronegativity_mulliken": [3.717009, 5.543415], "includesElement__electronegativity_nagle": [0.4686656, 0.5928156], "includesElement__electronegativity_pauling": [1.55, 2.2], "includesElement__electronegativity_sanderson": [0.6707264, 1.45101], "includesElement__en_ghosh": [0.1352844, 0.25691], "includesElement__en_pauling": [1.55, 2.2], "includesElement__evaporation_heat": [221.0, 470.0], "includesElement__fusion_heat": [13.4, 21.76], "includesElement__glawe_number": [72, 64], "includesElement__group_id": [7, 10], "includesElement__heat_of_formation": [283.3, 565.7], "includesElement__is_radioactive": [false], "includesElement__lattice_constant": [8.89, 3.92], "includesElement__mendeleev_number": [55, 69], "includesElement__molar_heat_capacity": [26.32, 25.86], "includesElement__period": [4, 6], "includesElement__pettifor_number": [60, 68], "includesElement__specific_heat_capacity": [0.479, 0.133], "includesElement__vdw_radius": [205.0, 213.0], "includesElement__vdw_radius_alvarez": [245.0, 229.0], "includesElement__vdw_radius_mm3": [224.0, 239.0], "includesElement__vdw_radius_uff": [296.1, 275.4], "includesElement__abundance_sea": [0.0002], "includesElement__atomic_weight_uncertainty": [3e-06, 0.009], "includesElement__c6_gb": [635.0, 470.0], "includesElement__covalent_radius_bragg": [147.0], "includesElement__electronegativity_allen": [10.34, 10.16], "includesElement__en_allen": [10.34, 10.16], "includesElement__metallic_radius": [118.0, 130.0], "includesElement__metallic_radius_c12": [127.0, 139.0], "includesElement__vdw_radius_batsanov": [205.0], "includesElement__c6": [552.0], "includesElement__is_monoisotopic": [true], "includesElement__gas_basicity": [774.4], "includesElement__proton_affinity": [797.3], "includesElement__electron_affinity": [2.128], "includesElement__thermal_conductivity": [71.6], "formula": ["Mn1Pt3"], "spacegroup": ["221"], "thermalConductivity": [4.54753], "icsd": ["104951"], "band_gap": [0.0], "density": [17.77078], "density_atomic": [14.95518], "deprecated": [false], "efermi": [7.035802], "energy_above_hull": [0.0], "energy_per_atom": [-7.197507], "formation_energy_per_atom": [-0.3536534], "is_gap_direct": [false], "is_magnetic": [true], "is_metal": [true], "is_stable": [true], "nelements": [2], "nsites": [4], "num_magnetic_sites": [1], "num_unique_magnetic_sites": [1], "theoretical": [false], "total_magnetization": [4.446981], "total_magnetization_normalized_formula_units": [4.446981], "total_magnetization_normalized_vol": [0.07433849], "uncorrected_energy_per_atom": [-42.85006], "volume": [59.82071], "equilibrium_reaction_energy_per_atom": [-0.1805526]}