{"includesElement": ["", "Ca", "Tl"], "includesElement___series_id": [4, 7], "includesElement__abundance_crust": [41500.0, 0.85], "includesElement__atomic_number": [20, 81], "includesElement__atomic_radius": [180.0, 190.0], "includesElement__atomic_radius_rahm": [270.0, 242.0], "includesElement__atomic_volume": [29.9, 17.2], "includesElement__atomic_weight": [40.078, 204.38], "includesElement__covalent_radius_cordero": [176.0, 145.0], "includesElement__covalent_radius_pyykko": [171.0, 144.0], "includesElement__covalent_radius_pyykko_double": [147.0, 142.0], "includesElement__covalent_radius_pyykko_triple": [133.0, 150.0], "includesElement__density": [1.54, 11.8], "includesElement__dipole_polarizability": [160.8, 50.0], "includesElement__dipole_polarizability_unc": [4.0, 2.0], "includesElement__discovery_year": [1808, 1861], "includesElement__electron_affinity": [0.02455, 0.377], "includesElement__electronegativity_allred-rochow": [9.746589e-05, 0.0002411265], "includesElement__electronegativity_cottrell-sutton": [0.1290994, 0.186339], "includesElement__electronegativity_ghosh": [0.1154119, 0.173447], "includesElement__electronegativity_gordy": [0.01666667, 0.03472222], "includesElement__electronegativity_mulliken": [3.068853, 3.242643], "includesElement__electronegativity_nagle": [0.2316939, 0.3914868], "includesElement__electronegativity_pauling": [1.0, 1.8], "includesElement__electronegativity_sanderson": [0.1901577, 0.9245096], "includesElement__en_ghosh": [0.1154119, 0.173447], "includesElement__en_pauling": [1.0, 1.8], "includesElement__evaporation_heat": [153.6, 162.4], "includesElement__fusion_heat": [9.2, 4.31], "includesElement__glawe_number": [16, 81], "includesElement__group_id": [2, 13], "includesElement__heat_of_formation": [177.8, 182.2], "includesElement__is_radioactive": [false], "includesElement__lattice_constant": [5.58, 3.46], "includesElement__mendeleev_number": [7, 85], "includesElement__molar_heat_capacity": [25.929, 26.32], "includesElement__period": [4, 6], "includesElement__pettifor_number": [16, 78], "includesElement__specific_heat_capacity": [0.647, 0.129], "includesElement__vdw_radius": [231.0, 196.0], "includesElement__vdw_radius_alvarez": [262.0, 247.0], "includesElement__vdw_radius_mm3": [281.0, 259.0], "includesElement__vdw_radius_uff": [339.9, 434.7], "includesElement__abundance_sea": [412.0, 1.9e-05], "includesElement__atomic_weight_uncertainty": [0.004], "includesElement__c6_gb": [2230.0, 509.0], "includesElement__covalent_radius_bragg": [170.0, 190.0], "includesElement__electronegativity_allen": [6.113], "includesElement__en_allen": [6.113], "includesElement__metallic_radius": [174.0, 144.0], "includesElement__metallic_radius_c12": [197.0, 160.0], "includesElement__vdw_radius_batsanov": [240.0, 220.0], "includesElement__c6": [2163.0], "includesElement__vdw_radius_truhlar": [231.0], "includesElement__thermal_conductivity": [46.1], "includesElement__vdw_radius_bondi": [196.0], "formula": ["Ca1Tl3"], "spacegroup": ["221"], "thermalConductivity": [0.4396], "icsd": ["58942"], "band_gap": [0.0], "density": [9.655696], "density_atomic": [28.08473], "deprecated": [false], "efermi": [5.484357], "energy_above_hull": [0.0], "energy_per_atom": [-41.92369], "formation_energy_per_atom": [-0.2796349], "is_gap_direct": [false], "is_magnetic": [false], "is_metal": [true], "is_stable": [true], "nelements": [2], "nsites": [4], "num_magnetic_sites": [0], "num_unique_magnetic_sites": [0], "theoretical": [false], "total_magnetization": [3.2e-06], "total_magnetization_normalized_formula_units": [3.2e-06], "total_magnetization_normalized_vol": [2.848523e-08], "uncorrected_energy_per_atom": [-41.92369], "volume": [112.3389], "equilibrium_reaction_energy_per_atom": [-0.00908093]}