{"includesElement": ["", "Dy", "B"], "includesElement___series_id": [9, 5], "includesElement__abundance_crust": [5.2, 10.0], "includesElement__atomic_number": [66, 5], "includesElement__atomic_radius": [175.0, 85.0], "includesElement__atomic_radius_rahm": [275.0, 205.0], "includesElement__atomic_volume": [19.0, 4.6], "includesElement__atomic_weight": [162.5, 10.81], "includesElement__covalent_radius_cordero": [192.0, 84.0], "includesElement__covalent_radius_pyykko": [167.0, 85.0], "includesElement__covalent_radius_pyykko_double": [133.0, 78.0], "includesElement__density": [8.55, 2.34], "includesElement__dipole_polarizability": [163.0, 20.5], "includesElement__dipole_polarizability_unc": [15.0, 0.1], "includesElement__discovery_year": [1886, 1808], "includesElement__electron_affinity": [0.352, 0.279723], "includesElement__electronegativity_allred-rochow": [0.0001021908, 0.0003598616], "includesElement__electronegativity_cottrell-sutton": [0.1306364, 0.1748949], "includesElement__electronegativity_ghosh": [0.20333, 0.184886], "includesElement__electronegativity_gordy": [0.01706587, 0.03058824], "includesElement__electronegativity_mulliken": [3.145525, 4.288871], "includesElement__electronegativity_nagle": [0.4191131, 0.5269739], "includesElement__electronegativity_pauling": [1.22, 2.04], "includesElement__electronegativity_sanderson": [0.5297338, 0.2546274], "includesElement__en_ghosh": [0.20333, 0.184886], "includesElement__en_pauling": [1.22, 2.04], "includesElement__evaporation_heat": [291.0, 504.5], "includesElement__glawe_number": [24, 86], "includesElement__heat_of_formation": [290.4, 565.0], "includesElement__is_radioactive": [false], "includesElement__lattice_constant": [3.59, 8.73], "includesElement__mendeleev_number": [31, 81], "includesElement__molar_heat_capacity": [28.16, 11.087], "includesElement__period": [6, 2], "includesElement__pettifor_number": [25, 86], "includesElement__specific_heat_capacity": [0.173, 1.026], "includesElement__vdw_radius": [231.0, 192.0], "includesElement__vdw_radius_alvarez": [287.0, 191.0], "includesElement__vdw_radius_mm3": [290.0, 215.0], "includesElement__vdw_radius_uff": [342.8, 408.3], "includesElement__abundance_sea": [9.1e-07, 4.44], "includesElement__atomic_weight_uncertainty": [0.001], "includesElement__c6_gb": [2430.0, 99.2], "includesElement__thermal_conductivity": [10.7, 27.4], "includesElement__covalent_radius_pyykko_triple": [73.0], "includesElement__fusion_heat": [23.6], "includesElement__group_id": [13], "includesElement__electronegativity_allen": [12.13], "includesElement__en_allen": [12.13], "includesElement__metallic_radius": [80.0], "includesElement__metallic_radius_c12": [98.0], "includesElement__vdw_radius_batsanov": [180.0], "includesElement__c6": [99.5], "includesElement__vdw_radius_dreiding": [402.0], "includesElement__vdw_radius_truhlar": [192.0], "formula": ["B6Dy1"], "spacegroup": ["221"], "thermalConductivity": [10.5437], "icsd": ["150623"], "band_gap": [0.0], "density": [5.54396], "density_atomic": [9.728737], "deprecated": [false], "efermi": [6.956605], "energy_above_hull": [0.0207643], "energy_per_atom": [-11.32621], "formation_energy_per_atom": [-0.4605067], "homogeneous_poisson": [0.286], "is_gap_direct": [false], "is_magnetic": [false], "is_metal": [true], "is_stable": [false], "nelements": [2], "nsites": [7], "num_magnetic_sites": [0], "num_unique_magnetic_sites": [0], "theoretical": [false], "total_magnetization": [0.0], "total_magnetization_normalized_formula_units": [0.0], "total_magnetization_normalized_vol": [0.0], "uncorrected_energy_per_atom": [-11.32621], "universal_anisotropy": [4.946], "volume": [68.10116]}