{"includesElement": ["", "O", "Rh"], "includesElement___series_id": [1, 8], "includesElement__abundance_crust": [461000.0, 0.001], "includesElement__atomic_number": [8, 45], "includesElement__atomic_radius": [60.0, 135.0], "includesElement__atomic_radius_rahm": [171.0, 233.0], "includesElement__atomic_volume": [14.0, 8.3], "includesElement__atomic_weight": [15.999, 102.9055], "includesElement__covalent_radius_cordero": [66.0, 142.0], "includesElement__covalent_radius_pyykko": [63.0, 125.0], "includesElement__covalent_radius_pyykko_double": [57.0, 110.0], "includesElement__covalent_radius_pyykko_triple": [53.0, 106.0], "includesElement__density": [0.001308, 12.4], "includesElement__dipole_polarizability": [5.3, 66.0], "includesElement__dipole_polarizability_unc": [0.2, 10.0], "includesElement__discovery_year": [1774, 1803], "includesElement__electron_affinity": [1.461113, 1.137], "includesElement__electronegativity_allred-rochow": [0.001146384, 0.0002176], "includesElement__electronegativity_cottrell-sutton": [0.2687419, 0.1649242], "includesElement__electronegativity_ghosh": [0.304575, 0.1408379], "includesElement__electronegativity_gordy": [0.07222222, 0.0272], "includesElement__electronegativity_mulliken": [7.539584, 4.29795], "includesElement__electronegativity_nagle": [1.042218, 0.5147142], "includesElement__electronegativity_pauling": [3.44, 2.28], "includesElement__electronegativity_sanderson": [0.9416494, 0.9761915], "includesElement__en_ghosh": [0.304575, 0.1408379], "includesElement__en_pauling": [3.44, 2.28], "includesElement__glawe_number": [97, 63], "includesElement__group_id": [16, 9], "includesElement__heat_of_formation": [249.229, 556.0], "includesElement__is_radioactive": [false], "includesElement__lattice_constant": [6.83, 3.8], "includesElement__mendeleev_number": [99, 64], "includesElement__molar_heat_capacity": [29.378, 24.98], "includesElement__period": [2, 5], "includesElement__pettifor_number": [101, 66], "includesElement__specific_heat_capacity": [0.918, 0.243], "includesElement__vdw_radius": [152.0, 210.0], "includesElement__vdw_radius_alvarez": [150.0, 244.0], "includesElement__vdw_radius_mm3": [182.0, 234.0], "includesElement__vdw_radius_uff": [350.0, 292.9], "includesElement__abundance_sea": [857000.0], "includesElement__c6_gb": [16.7, 708.0], "includesElement__covalent_radius_bragg": [65.0], "includesElement__electronegativity_allen": [21.36, 9.259], "includesElement__en_allen": [21.36, 9.259], "includesElement__thermal_conductivity": [0.027, 150.0], "includesElement__vdw_radius_batsanov": [155.0, 200.0], "includesElement__c6": [15.6], "includesElement__vdw_radius_dreiding": [340.46], "includesElement__gas_basicity": [459.6, 745.4], "includesElement__proton_affinity": [485.2, 768.0], "includesElement__vdw_radius_bondi": [152.0], "includesElement__vdw_radius_rt": [158.0], "includesElement__evaporation_heat": [494.0], "includesElement__fusion_heat": [21.8], "includesElement__atomic_weight_uncertainty": [2e-05], "includesElement__metallic_radius": [125.0], "includesElement__metallic_radius_c12": [134.0], "includesElement__is_monoisotopic": [true], "formula": ["O4Rh2"], "spacegroup": ["136"], "thermalConductivity": [11.6446], "icsd": ["28498"], "band_gap": [0.0], "density": [7.200741], "density_atomic": [10.36994], "deprecated": [false], "efermi": [4.085262], "energy_above_hull": [0.0], "energy_per_atom": [-12.99982], "formation_energy_per_atom": [-0.9806433], "homogeneous_poisson": [0.312], "is_gap_direct": [false], "is_magnetic": [false], "is_metal": [true], "is_stable": [true], "nelements": [2], "nsites": [6], "num_magnetic_sites": [0], "num_unique_magnetic_sites": [0], "theoretical": [false], "total_magnetization": [7e-07], "total_magnetization_normalized_formula_units": [3.5e-07], "total_magnetization_normalized_vol": [1.125046e-08], "uncorrected_energy_per_atom": [-12.99982], "universal_anisotropy": [1.53], "volume": [62.21967], "equilibrium_reaction_energy_per_atom": [-0.2151469]}