{"includesElement": ["", "Tc"], "includesElement___series_id": [8], "includesElement__atomic_number": [43], "includesElement__atomic_radius": [135.0], "includesElement__atomic_radius_rahm": [252.0], "includesElement__atomic_volume": [8.5], "includesElement__atomic_weight": [97.90721], "includesElement__covalent_radius_cordero": [147.0], "includesElement__covalent_radius_pyykko": [128.0], "includesElement__covalent_radius_pyykko_double": [120.0], "includesElement__covalent_radius_pyykko_triple": [110.0], "includesElement__density": [11.0], "includesElement__dipole_polarizability": [79.0], "includesElement__dipole_polarizability_unc": [10.0], "includesElement__discovery_year": [1937], "includesElement__electron_affinity": [0.55], "includesElement__electronegativity_allred-rochow": [0.0002197266], "includesElement__electronegativity_cottrell-sutton": [0.1677051], "includesElement__electronegativity_ghosh": [0.1344592], "includesElement__electronegativity_gordy": [0.028125], "includesElement__electronegativity_mulliken": [3.83469], "includesElement__electronegativity_nagle": [0.4458174], "includesElement__electronegativity_pauling": [2.1], "includesElement__electronegativity_sanderson": [0.8753613], "includesElement__en_ghosh": [0.1344592], "includesElement__en_pauling": [2.1], "includesElement__evaporation_heat": [585.0], "includesElement__fusion_heat": [23.8], "includesElement__glawe_number": [59], "includesElement__group_id": [7], "includesElement__heat_of_formation": [678.0], "includesElement__is_radioactive": [true], "includesElement__lattice_constant": [2.74], "includesElement__mendeleev_number": [56], "includesElement__period": [5], "includesElement__pettifor_number": [58], "includesElement__vdw_radius": [216.0], "includesElement__vdw_radius_alvarez": [244.0], "includesElement__vdw_radius_mm3": [236.0], "includesElement__vdw_radius_uff": [299.8], "includesElement__atomic_weight_uncertainty": [3e-05], "includesElement__c6_gb": [939.0], "includesElement__electronegativity_allen": [8.94], "includesElement__en_allen": [8.94], "includesElement__metallic_radius": [127.0], "includesElement__metallic_radius_c12": [136.0], "includesElement__thermal_conductivity": [50.6], "includesElement__vdw_radius_batsanov": [205.0], "formula": ["Tc1"], "spacegroup": ["225"], "thermalConductivity": [59.058], "icsd": ["41514"], "band_gap": [0.0], "density": [11.35806], "density_atomic": [14.32752], "deprecated": [false], "efermi": [8.719221], "energy_above_hull": [0.07344225], "energy_per_atom": [-25.89122], "formation_energy_per_atom": [0.07344225], "homogeneous_poisson": [0.297], "is_gap_direct": [false], "is_magnetic": [false], "is_metal": [true], "is_stable": [false], "nelements": [1], "nsites": [1], "num_magnetic_sites": [0], "num_unique_magnetic_sites": [0], "theoretical": [true], "total_magnetization": [2.39e-05], "total_magnetization_normalized_formula_units": [2.39e-05], "total_magnetization_normalized_vol": [1.668119e-06], "uncorrected_energy_per_atom": [-25.89122], "universal_anisotropy": [0.276], "volume": [14.32752]}