{"includesElement": ["", "F", "Eu"], "includesElement___series_id": [6, 9], "includesElement__abundance_crust": [585.0, 2.0], "includesElement__atomic_number": [9, 63], "includesElement__atomic_radius": [50.0, 185.0], "includesElement__atomic_radius_rahm": [163.0, 280.0], "includesElement__atomic_volume": [17.1, 28.9], "includesElement__atomic_weight": [18.9984, 151.964], "includesElement__covalent_radius_cordero": [57.0, 198.0], "includesElement__covalent_radius_pyykko": [64.0, 168.0], "includesElement__covalent_radius_pyykko_double": [59.0, 134.0], "includesElement__covalent_radius_pyykko_triple": [53.0], "includesElement__density": [0.001553, 5.24], "includesElement__dipole_polarizability": [3.74, 184.0], "includesElement__dipole_polarizability_unc": [0.08, 20.0], "includesElement__discovery_year": [1886, 1901], "includesElement__electron_affinity": [3.40119, 0.864], "includesElement__electronegativity_allred-rochow": [0.001269531, 0.0001009779], "includesElement__electronegativity_cottrell-sutton": [0.2850439, 0.130247], "includesElement__electronegativity_ghosh": [0.344443, 0.189935], "includesElement__electronegativity_gordy": [0.08125, 0.01696429], "includesElement__electronegativity_mulliken": [10.412, 3.267192], "includesElement__electronegativity_nagle": [1.232373, 0.365714], "includesElement__electronegativity_pauling": [3.98], "includesElement__electronegativity_sanderson": [1.017681, 0.508508], "includesElement__en_ghosh": [0.344443, 0.189935], "includesElement__en_pauling": [3.98], "includesElement__evaporation_heat": [6.54, 176.0], "includesElement__fusion_heat": [0.51], "includesElement__glawe_number": [102, 17], "includesElement__group_id": [17], "includesElement__heat_of_formation": [79.335, 177.4], "includesElement__is_radioactive": [false], "includesElement__mendeleev_number": [106, 25], "includesElement__molar_heat_capacity": [31.304, 27.66], "includesElement__period": [2, 6], "includesElement__pettifor_number": [102, 18], "includesElement__specific_heat_capacity": [0.824, 0.182], "includesElement__vdw_radius": [147.0, 235.0], "includesElement__vdw_radius_alvarez": [146.0, 287.0], "includesElement__vdw_radius_mm3": [171.0, 294.0], "includesElement__vdw_radius_uff": [336.4, 349.3], "includesElement__abundance_sea": [1.3, 1.3e-07], "includesElement__atomic_weight_uncertainty": [6e-09, 0.001], "includesElement__c6_gb": [10.2, 2940.0], "includesElement__covalent_radius_bragg": [67.0], "includesElement__electronegativity_allen": [24.8], "includesElement__en_allen": [24.8], "includesElement__thermal_conductivity": [0.028, 13.9], "includesElement__vdw_radius_batsanov": [150.0], "includesElement__c6": [9.52], "includesElement__is_monoisotopic": [true], "includesElement__vdw_radius_dreiding": [347.2], "includesElement__gas_basicity": [315.1], "includesElement__proton_affinity": [340.1], "includesElement__vdw_radius_bondi": [147.0], "includesElement__vdw_radius_rt": [146.0], "includesElement__lattice_constant": [4.61], "formula": ["Eu1F2"], "spacegroup": ["225"], "thermalConductivity": [3.45762], "icsd": ["260882"], "band_gap": [0.0], "density": [6.463514], "density_atomic": [16.26759], "deprecated": [false], "efermi": [4.404002], "energy_above_hull": [0.0], "energy_per_atom": [-19.01783], "formation_energy_per_atom": [-4.095096], "homogeneous_poisson": [0.313], "is_gap_direct": [false], "is_magnetic": [true], "is_metal": [true], "is_stable": [true], "nelements": [2], "nsites": [3], "num_magnetic_sites": [1], "num_unique_magnetic_sites": [1], "theoretical": [false], "total_magnetization": [6.999993], "total_magnetization_normalized_formula_units": [6.999993], "total_magnetization_normalized_vol": [0.1434344], "uncorrected_energy_per_atom": [-19.01783], "universal_anisotropy": [0.058], "volume": [48.80276], "equilibrium_reaction_energy_per_atom": [-0.6647117]}