{"includesElement": ["", "Se", "Pd"], "includesElement___series_id": [1, 8], "includesElement__abundance_crust": [0.05, 0.015], "includesElement__atomic_number": [34, 46], "includesElement__atomic_radius": [115.0, 140.0], "includesElement__atomic_radius_rahm": [224.0, 215.0], "includesElement__atomic_volume": [16.5, 8.9], "includesElement__atomic_weight": [78.971, 106.42], "includesElement__covalent_radius_cordero": [120.0, 139.0], "includesElement__covalent_radius_pyykko": [116.0, 120.0], "includesElement__covalent_radius_pyykko_double": [107.0, 117.0], "includesElement__covalent_radius_pyykko_triple": [107.0, 112.0], "includesElement__density": [4.809, 12.0], "includesElement__dipole_polarizability": [28.9, 26.14], "includesElement__dipole_polarizability_unc": [1.0, 0.1], "includesElement__discovery_year": [1818, 1803], "includesElement__electron_affinity": [2.02067, 0.562], "includesElement__electronegativity_allred-rochow": [0.0005164982, 0.0004756944], "includesElement__electronegativity_cottrell-sutton": [0.2447729, 0.2389212], "includesElement__electronegativity_ghosh": [0.2240328, 0.1440276], "includesElement__electronegativity_gordy": [0.05991379, 0.05708333], "includesElement__electronegativity_mulliken": [5.886531, 4.44943], "includesElement__electronegativity_nagle": [0.592131, 0.7259357], "includesElement__electronegativity_pauling": [2.55, 2.2], "includesElement__electronegativity_sanderson": [0.9659121, 1.124263], "includesElement__en_ghosh": [0.2240328, 0.1440276], "includesElement__en_pauling": [2.55, 2.2], "includesElement__evaporation_heat": [59.7, 372.4], "includesElement__fusion_heat": [5.23, 17.24], "includesElement__glawe_number": [95, 65], "includesElement__group_id": [16, 10], "includesElement__heat_of_formation": [227.2, 376.6], "includesElement__is_radioactive": [false], "includesElement__lattice_constant": [4.36, 3.89], "includesElement__mendeleev_number": [101, 68], "includesElement__molar_heat_capacity": [25.363, 25.98], "includesElement__period": [4, 5], "includesElement__pettifor_number": [93, 69], "includesElement__specific_heat_capacity": [0.321, 0.246], "includesElement__vdw_radius": [190.0, 210.0], "includesElement__vdw_radius_alvarez": [182.0, 215.0], "includesElement__vdw_radius_mm3": [229.0, 237.0], "includesElement__vdw_radius_uff": [420.5, 289.9], "includesElement__abundance_sea": [0.0002], "includesElement__atomic_weight_uncertainty": [0.008, 0.01], "includesElement__c6_gb": [233.0, 628.0], "includesElement__covalent_radius_bragg": [117.0], "includesElement__electronegativity_allen": [14.34, 9.402], "includesElement__en_allen": [14.34, 9.402], "includesElement__metallic_radius": [117.0, 128.0], "includesElement__metallic_radius_c12": [140.0, 137.0], "includesElement__thermal_conductivity": [0.52, 71.8], "includesElement__vdw_radius_batsanov": [190.0, 205.0], "includesElement__c6": [210.0], "includesElement__vdw_radius_dreiding": [403.0], "includesElement__vdw_radius_bondi": [190.0], "includesElement__gas_basicity": [673.4], "includesElement__proton_affinity": [696.0], "formula": ["Pd8Se2"], "spacegroup": ["114"], "thermalConductivity": [1.14176], "icsd": ["23864"], "band_gap": [0.0], "density": [10.56484], "density_atomic": [15.86346], "deprecated": [false], "efermi": [4.493216], "energy_above_hull": [0.0], "energy_per_atom": [-21.3985], "formation_energy_per_atom": [-0.1678274], "is_gap_direct": [false], "is_magnetic": [false], "is_metal": [true], "is_stable": [true], "nelements": [2], "nsites": [10], "num_magnetic_sites": [0], "num_unique_magnetic_sites": [0], "theoretical": [false], "total_magnetization": [1e-07], "total_magnetization_normalized_formula_units": [5e-08], "total_magnetization_normalized_vol": [6.303794e-10], "uncorrected_energy_per_atom": [-21.3985], "volume": [158.6346], "equilibrium_reaction_energy_per_atom": [-0.002448555]}