{"includesElement": ["", "Ho", "C"], "includesElement___series_id": [9, 1], "includesElement__abundance_crust": [1.3, 200.0], "includesElement__atomic_number": [67, 6], "includesElement__atomic_radius": [175.0, 70.0], "includesElement__atomic_radius_rahm": [273.0, 190.0], "includesElement__atomic_volume": [18.7, 5.3], "includesElement__atomic_weight": [164.9303, 12.011], "includesElement__covalent_radius_cordero": [192.0, 73.0], "includesElement__covalent_radius_pyykko": [166.0, 75.0], "includesElement__covalent_radius_pyykko_double": [133.0, 67.0], "includesElement__density": [8.8, 2.2], "includesElement__dipole_polarizability": [156.0, 11.3], "includesElement__dipole_polarizability_unc": [10.0, 0.2], "includesElement__discovery_year": [1878], "includesElement__electronegativity_allred-rochow": [0.0001034258, 0.0005777778], "includesElement__electronegativity_cottrell-sutton": [0.1310293, 0.2081666], "includesElement__electronegativity_ghosh": [0.207795, 0.224776], "includesElement__electronegativity_gordy": [0.01716867, 0.04333333], "includesElement__electronegativity_mulliken": [3.01075, 6.261208], "includesElement__electronegativity_nagle": [0.4367902, 0.7073926], "includesElement__electronegativity_pauling": [1.23, 2.55], "includesElement__electronegativity_sanderson": [0.5434919, 0.427525], "includesElement__en_ghosh": [0.207795, 0.224776], "includesElement__en_pauling": [1.23, 2.55], "includesElement__evaporation_heat": [301.0], "includesElement__glawe_number": [23, 87], "includesElement__heat_of_formation": [300.6, 716.87], "includesElement__is_radioactive": [false], "includesElement__lattice_constant": [3.58, 3.57], "includesElement__mendeleev_number": [33, 87], "includesElement__molar_heat_capacity": [27.15, 8.517], "includesElement__period": [6, 2], "includesElement__pettifor_number": [24, 95], "includesElement__specific_heat_capacity": [0.165, 0.709], "includesElement__vdw_radius": [230.0, 170.0], "includesElement__vdw_radius_alvarez": [281.0, 177.0], "includesElement__vdw_radius_mm3": [267.0, 204.0], "includesElement__vdw_radius_uff": [340.9, 385.1], "includesElement__abundance_sea": [2.2e-07, 28.0], "includesElement__atomic_weight_uncertainty": [2e-05], "includesElement__c6_gb": [2280.0, 47.9], "includesElement__is_monoisotopic": [true], "includesElement__covalent_radius_pyykko_triple": [60.0], "includesElement__electron_affinity": [1.262119], "includesElement__group_id": [14], "includesElement__covalent_radius_bragg": [77.0], "includesElement__electronegativity_allen": [15.05], "includesElement__en_allen": [15.05], "includesElement__metallic_radius_c12": [86.0], "includesElement__thermal_conductivity": [1.59], "includesElement__vdw_radius_batsanov": [170.0], "includesElement__c6": [46.6], "includesElement__vdw_radius_dreiding": [389.83], "includesElement__vdw_radius_bondi": [170.0], "includesElement__vdw_radius_rt": [177.0], "formula": ["C2Ho1"], "spacegroup": ["139"], "thermalConductivity": [10.7218], "icsd": ["17026"], "band_gap": [0.0], "density": [7.635541], "density_atomic": [13.69742], "deprecated": [false], "efermi": [4.369221], "energy_above_hull": [0.07491461], "energy_per_atom": [-7.873718], "formation_energy_per_atom": [-0.1887146], "homogeneous_poisson": [0.34], "is_gap_direct": [false], "is_magnetic": [false], "is_metal": [true], "is_stable": [false], "nelements": [2], "nsites": [3], "num_magnetic_sites": [0], "num_unique_magnetic_sites": [0], "theoretical": [false], "total_magnetization": [1.85e-05], "total_magnetization_normalized_formula_units": [1.85e-05], "total_magnetization_normalized_vol": [4.502063e-07], "uncorrected_energy_per_atom": [-7.873718], "universal_anisotropy": [15.5], "volume": [41.09227]}