{"includesElement": ["", "Tl", "La"], "includesElement___series_id": [7, 9], "includesElement__abundance_crust": [0.85, 39.0], "includesElement__atomic_number": [81, 57], "includesElement__atomic_radius": [190.0, 195.0], "includesElement__atomic_radius_rahm": [242.0, 284.0], "includesElement__atomic_volume": [17.2, 22.5], "includesElement__atomic_weight": [204.38, 138.9055], "includesElement__covalent_radius_cordero": [145.0, 207.0], "includesElement__covalent_radius_pyykko": [144.0, 180.0], "includesElement__covalent_radius_pyykko_double": [142.0, 139.0], "includesElement__covalent_radius_pyykko_triple": [150.0, 139.0], "includesElement__density": [11.8, 6.15], "includesElement__dipole_polarizability": [50.0, 215.0], "includesElement__dipole_polarizability_unc": [2.0, 20.0], "includesElement__discovery_year": [1861, 1839], "includesElement__electron_affinity": [0.377, 0.47], "includesElement__electronegativity_allred-rochow": [0.0002411265, 9.259259e-05], "includesElement__electronegativity_cottrell-sutton": [0.186339, 0.1290994], "includesElement__electronegativity_ghosh": [0.173447, 0.163142], "includesElement__electronegativity_gordy": [0.03472222, 0.01666667], "includesElement__electronegativity_mulliken": [3.242643, 3.02345], "includesElement__electronegativity_nagle": [0.3914868, 0.240747], "includesElement__electronegativity_pauling": [1.8, 1.1], "includesElement__electronegativity_sanderson": [0.9245096, 0.3946505], "includesElement__en_ghosh": [0.173447, 0.163142], "includesElement__en_pauling": [1.8, 1.1], "includesElement__evaporation_heat": [162.4, 402.0], "includesElement__fusion_heat": [4.31, 8.5], "includesElement__glawe_number": [81, 32], "includesElement__group_id": [13, 3], "includesElement__heat_of_formation": [182.2, 431.0], "includesElement__is_radioactive": [false], "includesElement__lattice_constant": [3.46, 3.75], "includesElement__mendeleev_number": [85, 13], "includesElement__molar_heat_capacity": [26.32, 27.11], "includesElement__period": [6], "includesElement__pettifor_number": [78, 33], "includesElement__specific_heat_capacity": [0.129, 0.195], "includesElement__vdw_radius": [196.0, 243.0], "includesElement__vdw_radius_alvarez": [247.0, 298.0], "includesElement__vdw_radius_mm3": [259.0, 278.0], "includesElement__vdw_radius_uff": [434.7, 352.2], "includesElement__abundance_sea": [1.9e-05, 3.4e-06], "includesElement__c6_gb": [509.0, 3730.0], "includesElement__covalent_radius_bragg": [190.0], "includesElement__metallic_radius": [144.0, 169.0], "includesElement__metallic_radius_c12": [160.0, 187.0], "includesElement__thermal_conductivity": [46.1, 13.4], "includesElement__vdw_radius_batsanov": [220.0, 250.0], "includesElement__vdw_radius_bondi": [196.0], "includesElement__atomic_weight_uncertainty": [7e-05], "includesElement__gas_basicity": [991.9], "includesElement__proton_affinity": [1013.0], "formula": ["La1Tl3"], "spacegroup": ["221"], "thermalConductivity": [1.21099], "icsd": ["104731"], "band_gap": [0.0], "density": [10.86598], "density_atomic": [28.73228], "deprecated": [false], "efermi": [7.123576], "energy_above_hull": [0.0], "energy_per_atom": [-3.370739], "formation_energy_per_atom": [-0.3581333], "homogeneous_poisson": [0.323], "is_gap_direct": [false], "is_magnetic": [false], "is_metal": [true], "is_stable": [true], "nelements": [2], "nsites": [4], "num_magnetic_sites": [0], "num_unique_magnetic_sites": [0], "theoretical": [false], "total_magnetization": [9e-07], "total_magnetization_normalized_formula_units": [9e-07], "total_magnetization_normalized_vol": [7.830913e-09], "uncorrected_energy_per_atom": [-47.76645], "universal_anisotropy": [0.514], "volume": [114.9291], "equilibrium_reaction_energy_per_atom": [-0.08466306]}