{"includesElement": ["", "Cd", "O"], "includesElement___series_id": [8, 1], "includesElement__abundance_crust": [0.15, 461000.0], "includesElement__atomic_number": [48, 8], "includesElement__atomic_radius": [155.0, 60.0], "includesElement__atomic_radius_rahm": [238.0, 171.0], "includesElement__atomic_volume": [13.1, 14.0], "includesElement__atomic_weight": [112.414, 15.999], "includesElement__covalent_radius_cordero": [144.0, 66.0], "includesElement__covalent_radius_pyykko": [136.0, 63.0], "includesElement__covalent_radius_pyykko_double": [144.0, 57.0], "includesElement__density": [8.69, 0.001308], "includesElement__dipole_polarizability": [46.0, 5.3], "includesElement__dipole_polarizability_unc": [2.0, 0.2], "includesElement__discovery_year": [1817, 1774], "includesElement__electronegativity_allred-rochow": [0.000235186, 0.001146384], "includesElement__electronegativity_cottrell-sutton": [0.1788443, 0.2687419], "includesElement__electronegativity_ghosh": [0.1504066, 0.304575], "includesElement__electronegativity_gordy": [0.03198529, 0.07222222], "includesElement__electronegativity_mulliken": [4.496911, 7.539584], "includesElement__electronegativity_nagle": [0.6389612, 1.042218], "includesElement__electronegativity_pauling": [1.69, 3.44], "includesElement__electronegativity_sanderson": [0.801562, 0.9416494], "includesElement__en_ghosh": [0.1504066, 0.304575], "includesElement__en_pauling": [1.69, 3.44], "includesElement__evaporation_heat": [59.1], "includesElement__fusion_heat": [6.11], "includesElement__glawe_number": [75, 97], "includesElement__group_id": [12, 16], "includesElement__heat_of_formation": [111.8, 249.229], "includesElement__is_radioactive": [false], "includesElement__lattice_constant": [2.98, 6.83], "includesElement__mendeleev_number": [78, 99], "includesElement__molar_heat_capacity": [26.02, 29.378], "includesElement__period": [5, 2], "includesElement__pettifor_number": [75, 101], "includesElement__specific_heat_capacity": [0.232, 0.918], "includesElement__vdw_radius": [218.0, 152.0], "includesElement__vdw_radius_alvarez": [249.0, 150.0], "includesElement__vdw_radius_mm3": [250.0, 182.0], "includesElement__vdw_radius_uff": [284.8, 350.0], "includesElement__abundance_sea": [0.00011, 857000.0], "includesElement__atomic_weight_uncertainty": [0.004], "includesElement__c6_gb": [405.0, 16.7], "includesElement__covalent_radius_bragg": [160.0, 65.0], "includesElement__electronegativity_allen": [8.995, 21.36], "includesElement__en_allen": [8.995, 21.36], "includesElement__metallic_radius": [138.0], "includesElement__metallic_radius_c12": [151.0], "includesElement__thermal_conductivity": [96.9, 0.027], "includesElement__vdw_radius_batsanov": [220.0, 155.0], "includesElement__covalent_radius_pyykko_triple": [53.0], "includesElement__electron_affinity": [1.461113], "includesElement__c6": [15.6], "includesElement__vdw_radius_dreiding": [340.46], "includesElement__gas_basicity": [459.6], "includesElement__proton_affinity": [485.2], "includesElement__vdw_radius_bondi": [152.0], "includesElement__vdw_radius_rt": [158.0], "formula": ["Cd4O8"], "spacegroup": ["205"], "thermalConductivity": [2.15515], "icsd": ["109339"], "band_gap": [1.2535], "density": [6.075568], "density_atomic": [13.15642], "deprecated": [false], "efermi": [1.974274], "energy_above_hull": [0.05581009], "energy_per_atom": [-11.45264], "formation_energy_per_atom": [-0.7772131], "homogeneous_poisson": [0.342], "is_gap_direct": [false], "is_magnetic": [false], "is_metal": [false], "is_stable": [false], "nelements": [2], "nsites": [12], "num_magnetic_sites": [0], "num_unique_magnetic_sites": [0], "theoretical": [false], "total_magnetization": [0.0006841], "total_magnetization_normalized_formula_units": [0.000171025], "total_magnetization_normalized_vol": [4.33312e-06], "uncorrected_energy_per_atom": [-4.149844], "universal_anisotropy": [0.031], "volume": [157.877], "cbm": [3.1735], "e_electronic": [4.457131], "e_ionic": [5.706155], "e_total": [10.16329], "n": [2.111192], "vbm": [1.92]}