{"includesElement": ["", "N", "La"], "includesElement___series_id": [1, 9], "includesElement__abundance_crust": [19.0, 39.0], "includesElement__atomic_number": [7, 57], "includesElement__atomic_radius": [65.0, 195.0], "includesElement__atomic_radius_rahm": [179.0, 284.0], "includesElement__atomic_volume": [17.3, 22.5], "includesElement__atomic_weight": [14.007, 138.9055], "includesElement__covalent_radius_cordero": [71.0, 207.0], "includesElement__covalent_radius_pyykko": [71.0, 180.0], "includesElement__covalent_radius_pyykko_double": [60.0, 139.0], "includesElement__covalent_radius_pyykko_triple": [54.0, 139.0], "includesElement__density": [0.001145, 6.15], "includesElement__dipole_polarizability": [7.4, 215.0], "includesElement__dipole_polarizability_unc": [0.2, 20.0], "includesElement__discovery_year": [1772, 1839], "includesElement__electron_affinity": [-1.4, 0.47], "includesElement__electronegativity_allred-rochow": [0.000773656, 9.259259e-05], "includesElement__electronegativity_cottrell-sutton": [0.2343706, 0.1290994], "includesElement__electronegativity_ghosh": [0.26493, 0.163142], "includesElement__electronegativity_gordy": [0.05492958, 0.01666667], "includesElement__electronegativity_mulliken": [6.567065, 3.02345], "includesElement__electronegativity_nagle": [0.8774979, 0.240747], "includesElement__electronegativity_pauling": [3.04, 1.1], "includesElement__electronegativity_sanderson": [0.577482, 0.3946505], "includesElement__en_ghosh": [0.26493, 0.163142], "includesElement__en_pauling": [3.04, 1.1], "includesElement__glawe_number": [88, 32], "includesElement__group_id": [15, 3], "includesElement__heat_of_formation": [472.44, 431.0], "includesElement__is_radioactive": [false], "includesElement__lattice_constant": [4.039, 3.75], "includesElement__mendeleev_number": [93, 13], "includesElement__molar_heat_capacity": [29.124, 27.11], "includesElement__period": [2, 6], "includesElement__pettifor_number": [100, 33], "includesElement__specific_heat_capacity": [1.04, 0.195], "includesElement__vdw_radius": [155.0, 243.0], "includesElement__vdw_radius_alvarez": [166.0, 298.0], "includesElement__vdw_radius_mm3": [193.0, 278.0], "includesElement__vdw_radius_uff": [366.0, 352.2], "includesElement__abundance_sea": [0.5, 3.4e-06], "includesElement__c6_gb": [25.7, 3730.0], "includesElement__covalent_radius_bragg": [65.0], "includesElement__electronegativity_allen": [18.13], "includesElement__en_allen": [18.13], "includesElement__metallic_radius_c12": [53.0, 187.0], "includesElement__thermal_conductivity": [0.026, 13.4], "includesElement__vdw_radius_batsanov": [160.0, 250.0], "includesElement__c6": [24.2], "includesElement__vdw_radius_dreiding": [366.21], "includesElement__gas_basicity": [318.7, 991.9], "includesElement__proton_affinity": [342.2, 1013.0], "includesElement__vdw_radius_bondi": [155.0], "includesElement__vdw_radius_rt": [164.0], "includesElement__evaporation_heat": [402.0], "includesElement__fusion_heat": [8.5], "includesElement__atomic_weight_uncertainty": [7e-05], "includesElement__metallic_radius": [169.0], "formula": ["La1N1"], "spacegroup": ["225"], "thermalConductivity": [24.2198], "icsd": ["162193"], "band_gap": [0.0], "density": [6.819864], "density_atomic": [18.61596], "deprecated": [false], "efermi": [7.89474], "energy_above_hull": [0.0], "energy_per_atom": [-21.01216], "formation_energy_per_atom": [-1.57539], "homogeneous_poisson": [0.266], "is_gap_direct": [false], "is_magnetic": [false], "is_metal": [true], "is_stable": [true], "nelements": [2], "nsites": [2], "num_magnetic_sites": [0], "num_unique_magnetic_sites": [0], "theoretical": [false], "total_magnetization": [2.4e-06], "total_magnetization_normalized_formula_units": [2.4e-06], "total_magnetization_normalized_vol": [6.446082e-08], "uncorrected_energy_per_atom": [-21.01216], "universal_anisotropy": [0.052], "volume": [37.23192], "equilibrium_reaction_energy_per_atom": [-1.57539]}