{"includesElement": ["", "Pb", "Pt"], "includesElement___series_id": [7, 8], "includesElement__abundance_crust": [14.0, 0.005], "includesElement__atomic_number": [82, 78], "includesElement__atomic_radius": [180.0, 135.0], "includesElement__atomic_radius_rahm": [249.0, 230.0], "includesElement__atomic_volume": [18.3, 9.1], "includesElement__atomic_weight": [207.2, 195.084], "includesElement__covalent_radius_cordero": [146.0, 136.0], "includesElement__covalent_radius_pyykko": [144.0, 123.0], "includesElement__covalent_radius_pyykko_double": [135.0, 112.0], "includesElement__covalent_radius_pyykko_triple": [137.0, 110.0], "includesElement__density": [11.3, 21.5], "includesElement__dipole_polarizability": [47.0, 48.0], "includesElement__dipole_polarizability_unc": [3.0, 4.0], "includesElement__electron_affinity": [0.3567432, 2.128], "includesElement__electronegativity_allred-rochow": [0.000272473, 0.0002346487], "includesElement__electronegativity_cottrell-sutton": [0.1980811, 0.1698876], "includesElement__electronegativity_ghosh": [0.177911, 0.25691], "includesElement__electronegativity_gordy": [0.03923611, 0.02886179], "includesElement__electronegativity_mulliken": [3.886711, 5.543415], "includesElement__electronegativity_nagle": [0.4398663, 0.5928156], "includesElement__electronegativity_pauling": [1.8, 2.2], "includesElement__electronegativity_sanderson": [0.9313226, 1.45101], "includesElement__en_ghosh": [0.177911, 0.25691], "includesElement__en_pauling": [1.8, 2.2], "includesElement__evaporation_heat": [177.8, 470.0], "includesElement__fusion_heat": [4.77, 21.76], "includesElement__glawe_number": [82, 64], "includesElement__group_id": [14, 10], "includesElement__heat_of_formation": [195.2, 565.7], "includesElement__is_radioactive": [false], "includesElement__lattice_constant": [4.95, 3.92], "includesElement__mendeleev_number": [91, 69], "includesElement__molar_heat_capacity": [26.84, 25.86], "includesElement__period": [6], "includesElement__pettifor_number": [82, 68], "includesElement__specific_heat_capacity": [0.13, 0.133], "includesElement__vdw_radius": [202.0, 213.0], "includesElement__vdw_radius_alvarez": [260.0, 229.0], "includesElement__vdw_radius_mm3": [274.0, 239.0], "includesElement__vdw_radius_uff": [429.7, 275.4], "includesElement__abundance_sea": [3e-05], "includesElement__atomic_weight_uncertainty": [0.1, 0.009], "includesElement__c6_gb": [534.0, 470.0], "includesElement__electronegativity_allen": [10.97, 10.16], "includesElement__en_allen": [10.97, 10.16], "includesElement__metallic_radius": [150.0, 130.0], "includesElement__metallic_radius_c12": [170.0, 139.0], "includesElement__thermal_conductivity": [35.3, 71.6], "includesElement__vdw_radius_batsanov": [230.0, 205.0], "includesElement__vdw_radius_bondi": [202.0], "includesElement__discovery_year": [1735], "formula": ["Pb1Pt3"], "spacegroup": ["221"], "thermalConductivity": [1.65327], "icsd": ["105603"], "band_gap": [0.0], "density": [19.09656], "density_atomic": [17.22689], "deprecated": [false], "efermi": [8.200235], "energy_above_hull": [0.03465781], "energy_per_atom": [-52.80834], "formation_energy_per_atom": [-0.121268], "homogeneous_poisson": [0.383], "is_gap_direct": [false], "is_magnetic": [false], "is_metal": [true], "is_stable": [false], "nelements": [2], "nsites": [4], "num_magnetic_sites": [0], "num_unique_magnetic_sites": [0], "theoretical": [false], "total_magnetization": [1e-07], "total_magnetization_normalized_formula_units": [1e-07], "total_magnetization_normalized_vol": [1.451219e-09], "uncorrected_energy_per_atom": [-52.80834], "universal_anisotropy": [0.368], "volume": [68.90758]}