{"includesElement": ["", "Nb", "Pt"], "includesElement___series_id": [8], "includesElement__abundance_crust": [20.0, 0.005], "includesElement__atomic_number": [41, 78], "includesElement__atomic_radius": [145.0, 135.0], "includesElement__atomic_radius_rahm": [251.0, 230.0], "includesElement__atomic_volume": [10.8, 9.1], "includesElement__atomic_weight": [92.90637, 195.084], "includesElement__covalent_radius_cordero": [164.0, 136.0], "includesElement__covalent_radius_pyykko": [147.0, 123.0], "includesElement__covalent_radius_pyykko_double": [125.0, 112.0], "includesElement__covalent_radius_pyykko_triple": [116.0, 110.0], "includesElement__density": [8.57, 21.5], "includesElement__dipole_polarizability": [98.0, 48.0], "includesElement__dipole_polarizability_unc": [8.0, 4.0], "includesElement__discovery_year": [1801, 1735], "includesElement__electron_affinity": [0.917406, 2.128], "includesElement__electronegativity_allred-rochow": [0.0001295756, 0.0002346487], "includesElement__electronegativity_cottrell-sutton": [0.1380131, 0.1698876], "includesElement__electronegativity_ghosh": [0.1280782, 0.25691], "includesElement__electronegativity_gordy": [0.01904762, 0.02886179], "includesElement__electronegativity_mulliken": [3.838128, 5.543415], "includesElement__electronegativity_nagle": [0.3708924, 0.5928156], "includesElement__electronegativity_pauling": [1.6, 2.2], "includesElement__electronegativity_sanderson": [0.5561695, 1.45101], "includesElement__en_ghosh": [0.1280782, 0.25691], "includesElement__en_pauling": [1.6, 2.2], "includesElement__evaporation_heat": [680.0, 470.0], "includesElement__fusion_heat": [26.8, 21.76], "includesElement__glawe_number": [53, 64], "includesElement__group_id": [5, 10], "includesElement__heat_of_formation": [733.0, 565.7], "includesElement__is_radioactive": [false], "includesElement__lattice_constant": [3.3, 3.92], "includesElement__mendeleev_number": [48, 69], "includesElement__molar_heat_capacity": [24.6, 25.86], "includesElement__period": [5, 6], "includesElement__pettifor_number": [52, 68], "includesElement__specific_heat_capacity": [0.265, 0.133], "includesElement__vdw_radius": [218.0, 213.0], "includesElement__vdw_radius_alvarez": [256.0, 229.0], "includesElement__vdw_radius_mm3": [243.0, 239.0], "includesElement__vdw_radius_uff": [316.5, 275.4], "includesElement__abundance_sea": [1e-05], "includesElement__atomic_weight_uncertainty": [2e-05, 0.009], "includesElement__c6_gb": [1140.0, 470.0], "includesElement__electronegativity_allen": [8.34, 10.16], "includesElement__en_allen": [8.34, 10.16], "includesElement__metallic_radius": [134.0, 130.0], "includesElement__metallic_radius_c12": [146.0, 139.0], "includesElement__thermal_conductivity": [53.7, 71.6], "includesElement__vdw_radius_batsanov": [215.0, 205.0], "includesElement__is_monoisotopic": [true], "formula": ["Nb1Pt2"], "spacegroup": ["71"], "thermalConductivity": [11.4992], "icsd": ["105200"], "band_gap": [0.0], "density": [16.75325], "density_atomic": [15.96037], "deprecated": [false], "efermi": [6.963203], "energy_above_hull": [0.0], "energy_per_atom": [-43.31882], "formation_energy_per_atom": [-0.7489792], "homogeneous_poisson": [0.302], "is_gap_direct": [false], "is_magnetic": [false], "is_metal": [true], "is_stable": [true], "nelements": [2], "nsites": [3], "num_magnetic_sites": [0], "num_unique_magnetic_sites": [0], "theoretical": [false], "total_magnetization": [3.1e-06], "total_magnetization_normalized_formula_units": [3.1e-06], "total_magnetization_normalized_vol": [6.474372e-08], "uncorrected_energy_per_atom": [-43.31882], "universal_anisotropy": [0.615], "volume": [47.8811], "equilibrium_reaction_energy_per_atom": [-0.05592259]}