{"includesElement": ["", "Sn", "La"], "includesElement___series_id": [7, 9], "includesElement__abundance_crust": [2.3, 39.0], "includesElement__atomic_number": [50, 57], "includesElement__atomic_radius": [145.0, 195.0], "includesElement__atomic_radius_rahm": [248.0, 284.0], "includesElement__atomic_volume": [16.3, 22.5], "includesElement__atomic_weight": [118.71, 138.9055], "includesElement__covalent_radius_cordero": [139.0, 207.0], "includesElement__covalent_radius_pyykko": [140.0, 180.0], "includesElement__covalent_radius_pyykko_double": [130.0, 139.0], "includesElement__covalent_radius_pyykko_triple": [132.0, 139.0], "includesElement__density": [7.287, 6.15], "includesElement__dipole_polarizability": [53.0, 215.0], "includesElement__dipole_polarizability_unc": [6.0, 20.0], "includesElement__electron_affinity": [1.112067, 0.47], "includesElement__electronegativity_allred-rochow": [0.0002882653, 9.259259e-05], "includesElement__electronegativity_cottrell-sutton": [0.2008909, 0.1290994], "includesElement__electronegativity_ghosh": [0.178052, 0.163142], "includesElement__electronegativity_gordy": [0.04035714, 0.01666667], "includesElement__electronegativity_mulliken": [4.227992, 3.02345], "includesElement__electronegativity_nagle": [0.4225986, 0.240747], "includesElement__electronegativity_pauling": [1.96, 1.1], "includesElement__electronegativity_sanderson": [0.7622797, 0.3946505], "includesElement__en_ghosh": [0.178052, 0.163142], "includesElement__en_pauling": [1.96, 1.1], "includesElement__evaporation_heat": [296.0, 402.0], "includesElement__fusion_heat": [7.07, 8.5], "includesElement__glawe_number": [83, 32], "includesElement__group_id": [14, 3], "includesElement__heat_of_formation": [301.2, 431.0], "includesElement__is_radioactive": [false], "includesElement__lattice_constant": [5.82, 3.75], "includesElement__mendeleev_number": [90, 13], "includesElement__molar_heat_capacity": [26.99, 27.11], "includesElement__period": [5, 6], "includesElement__pettifor_number": [83, 33], "includesElement__specific_heat_capacity": [0.227, 0.195], "includesElement__vdw_radius": [217.0, 243.0], "includesElement__vdw_radius_alvarez": [242.0, 298.0], "includesElement__vdw_radius_mm3": [259.0, 278.0], "includesElement__vdw_radius_uff": [439.2, 352.2], "includesElement__abundance_sea": [4e-06, 3.4e-06], "includesElement__atomic_weight_uncertainty": [0.007, 7e-05], "includesElement__c6_gb": [715.0, 3730.0], "includesElement__covalent_radius_bragg": [140.0], "includesElement__electronegativity_allen": [10.79], "includesElement__en_allen": [10.79], "includesElement__metallic_radius": [142.0, 169.0], "includesElement__metallic_radius_c12": [163.0, 187.0], "includesElement__thermal_conductivity": [66.8, 13.4], "includesElement__vdw_radius_batsanov": [225.0, 250.0], "includesElement__c6": [659.0], "includesElement__vdw_radius_dreiding": [447.0], "includesElement__vdw_radius_bondi": [217.0], "includesElement__discovery_year": [1839], "includesElement__gas_basicity": [991.9], "includesElement__proton_affinity": [1013.0], "formula": ["La1Sn3"], "spacegroup": ["221"], "thermalConductivity": [1.57155], "icsd": ["104720"], "band_gap": [0.0], "density": [7.415102], "density_atomic": [27.71458], "deprecated": [false], "efermi": [8.900481], "energy_above_hull": [0.0], "energy_per_atom": [-4.816206], "formation_energy_per_atom": [-0.5750254], "is_gap_direct": [false], "is_magnetic": [false], "is_metal": [true], "is_stable": [true], "nelements": [2], "nsites": [4], "num_magnetic_sites": [0], "num_unique_magnetic_sites": [0], "theoretical": [false], "total_magnetization": [8.98e-05], "total_magnetization_normalized_formula_units": [8.98e-05], "total_magnetization_normalized_vol": [8.10043e-07], "uncorrected_energy_per_atom": [-26.56274], "volume": [110.8583], "equilibrium_reaction_energy_per_atom": [-0.03259847]}