{"includesElement": ["", "Cr", "C"], "includesElement___series_id": [8, 1], "includesElement__abundance_crust": [102.0, 200.0], "includesElement__atomic_number": [24, 6], "includesElement__atomic_radius": [140.0, 70.0], "includesElement__atomic_radius_rahm": [233.0, 190.0], "includesElement__atomic_volume": [7.23, 5.3], "includesElement__atomic_weight": [51.9961, 12.011], "includesElement__covalent_radius_cordero": [139.0, 73.0], "includesElement__covalent_radius_pyykko": [122.0, 75.0], "includesElement__covalent_radius_pyykko_double": [111.0, 67.0], "includesElement__covalent_radius_pyykko_triple": [103.0, 60.0], "includesElement__density": [7.15, 2.2], "includesElement__dipole_polarizability": [83.0, 11.3], "includesElement__dipole_polarizability_unc": [12.0, 0.2], "includesElement__discovery_year": [1797], "includesElement__electron_affinity": [0.666, 1.262119], "includesElement__electronegativity_allred-rochow": [0.0001981994, 0.0005777778], "includesElement__electronegativity_cottrell-sutton": [0.1555003, 0.2081666], "includesElement__electronegativity_ghosh": [0.1313053, 0.224776], "includesElement__electronegativity_gordy": [0.02418033, 0.04333333], "includesElement__electronegativity_mulliken": [3.716255, 6.261208], "includesElement__electronegativity_nagle": [0.4165729, 0.7073926], "includesElement__electronegativity_pauling": [1.66, 2.55], "includesElement__electronegativity_sanderson": [0.6017723, 0.427525], "includesElement__en_ghosh": [0.1313053, 0.224776], "includesElement__en_pauling": [1.66, 2.55], "includesElement__evaporation_heat": [342.0], "includesElement__fusion_heat": [21.0], "includesElement__glawe_number": [55, 87], "includesElement__group_id": [6, 14], "includesElement__heat_of_formation": [397.48, 716.87], "includesElement__is_radioactive": [false], "includesElement__lattice_constant": [2.88, 3.57], "includesElement__mendeleev_number": [51, 87], "includesElement__molar_heat_capacity": [23.35, 8.517], "includesElement__period": [4, 2], "includesElement__pettifor_number": [57, 95], "includesElement__specific_heat_capacity": [0.449, 0.709], "includesElement__vdw_radius": [206.0, 170.0], "includesElement__vdw_radius_alvarez": [245.0, 177.0], "includesElement__vdw_radius_mm3": [225.0, 204.0], "includesElement__vdw_radius_uff": [302.3, 385.1], "includesElement__abundance_sea": [0.0003, 28.0], "includesElement__atomic_weight_uncertainty": [0.0006], "includesElement__c6_gb": [709.0, 47.9], "includesElement__covalent_radius_bragg": [140.0, 77.0], "includesElement__electronegativity_allen": [9.77, 15.05], "includesElement__en_allen": [9.77, 15.05], "includesElement__metallic_radius": [119.0], "includesElement__metallic_radius_c12": [128.0, 86.0], "includesElement__thermal_conductivity": [93.9, 1.59], "includesElement__vdw_radius_batsanov": [205.0, 170.0], "includesElement__c6": [602.0, 46.6], "includesElement__gas_basicity": [768.4], "includesElement__proton_affinity": [791.3], "includesElement__vdw_radius_dreiding": [389.83], "includesElement__vdw_radius_bondi": [170.0], "includesElement__vdw_radius_rt": [177.0], "formula": ["C1Cr1"], "spacegroup": ["225"], "thermalConductivity": [20.8326], "icsd": ["181710"], "band_gap": [0.0], "density": [6.132124], "density_atomic": [8.666312], "deprecated": [false], "efermi": [8.315989], "energy_above_hull": [0.2543776], "energy_per_atom": [-9.269406], "formation_energy_per_atom": [0.17145], "homogeneous_poisson": [0.163], "is_gap_direct": [false], "is_magnetic": [true], "is_metal": [true], "is_stable": [false], "nelements": [2], "nsites": [2], "num_magnetic_sites": [1], "num_unique_magnetic_sites": [1], "theoretical": [false], "total_magnetization": [1.396078], "total_magnetization_normalized_formula_units": [1.396078], "total_magnetization_normalized_vol": [0.08054625], "uncorrected_energy_per_atom": [-9.269406], "universal_anisotropy": [1.095], "volume": [17.33262]}