{"includesElement": ["", "O", "Nb", "B"], "includesElement___series_id": [1, 8, 5], "includesElement__abundance_crust": [461000.0, 20.0, 10.0], "includesElement__atomic_number": [8, 41, 5], "includesElement__atomic_radius": [60.0, 145.0, 85.0], "includesElement__atomic_radius_rahm": [171.0, 251.0, 205.0], "includesElement__atomic_volume": [14.0, 10.8, 4.6], "includesElement__atomic_weight": [15.999, 92.90637, 10.81], "includesElement__covalent_radius_cordero": [66.0, 164.0, 84.0], "includesElement__covalent_radius_pyykko": [63.0, 147.0, 85.0], "includesElement__covalent_radius_pyykko_double": [57.0, 125.0, 78.0], "includesElement__covalent_radius_pyykko_triple": [53.0, 116.0, 73.0], "includesElement__density": [0.001308, 8.57, 2.34], "includesElement__dipole_polarizability": [5.3, 98.0, 20.5], "includesElement__dipole_polarizability_unc": [0.2, 8.0, 0.1], "includesElement__discovery_year": [1774, 1801, 1808], "includesElement__electron_affinity": [1.461113, 0.917406, 0.279723], "includesElement__electronegativity_allred-rochow": [0.001146384, 0.0001295756, 0.0003598616], "includesElement__electronegativity_cottrell-sutton": [0.2687419, 0.1380131, 0.1748949], "includesElement__electronegativity_ghosh": [0.304575, 0.1280782, 0.184886], "includesElement__electronegativity_gordy": [0.07222222, 0.01904762, 0.03058824], "includesElement__electronegativity_mulliken": [7.539584, 3.838128, 4.288871], "includesElement__electronegativity_nagle": [1.042218, 0.3708924, 0.5269739], "includesElement__electronegativity_pauling": [3.44, 1.6, 2.04], "includesElement__electronegativity_sanderson": [0.9416494, 0.5561695, 0.2546274], "includesElement__en_ghosh": [0.304575, 0.1280782, 0.184886], "includesElement__en_pauling": [3.44, 1.6, 2.04], "includesElement__glawe_number": [97, 53, 86], "includesElement__group_id": [16, 5, 13], "includesElement__heat_of_formation": [249.229, 733.0, 565.0], "includesElement__is_radioactive": [false], "includesElement__lattice_constant": [6.83, 3.3, 8.73], "includesElement__mendeleev_number": [99, 48, 81], "includesElement__molar_heat_capacity": [29.378, 24.6, 11.087], "includesElement__period": [2, 5], "includesElement__pettifor_number": [101, 52, 86], "includesElement__specific_heat_capacity": [0.918, 0.265, 1.026], "includesElement__vdw_radius": [152.0, 218.0, 192.0], "includesElement__vdw_radius_alvarez": [150.0, 256.0, 191.0], "includesElement__vdw_radius_mm3": [182.0, 243.0, 215.0], "includesElement__vdw_radius_uff": [350.0, 316.5, 408.3], "includesElement__abundance_sea": [857000.0, 1e-05, 4.44], "includesElement__c6_gb": [16.7, 1140.0, 99.2], "includesElement__covalent_radius_bragg": [65.0], "includesElement__electronegativity_allen": [21.36, 8.34, 12.13], "includesElement__en_allen": [21.36, 8.34, 12.13], "includesElement__thermal_conductivity": [0.027, 53.7, 27.4], "includesElement__vdw_radius_batsanov": [155.0, 215.0, 180.0], "includesElement__c6": [15.6, 99.5], "includesElement__vdw_radius_dreiding": [340.46, 402.0], "includesElement__gas_basicity": [459.6], "includesElement__proton_affinity": [485.2], "includesElement__vdw_radius_bondi": [152.0], "includesElement__vdw_radius_rt": [158.0], "includesElement__evaporation_heat": [680.0, 504.5], "includesElement__fusion_heat": [26.8, 23.6], "includesElement__atomic_weight_uncertainty": [2e-05], "includesElement__metallic_radius": [134.0, 80.0], "includesElement__metallic_radius_c12": [146.0, 98.0], "includesElement__is_monoisotopic": [true], "includesElement__vdw_radius_truhlar": [192.0], "formula": ["B2Nb2O8"], "spacegroup": ["141"], "thermalConductivity": [19.3308], "icsd": ["63202"], "band_gap": [2.4589], "density": [5.127384], "density_atomic": [9.052611], "deprecated": [false], "efermi": [3.26847], "energy_above_hull": [0.0], "energy_per_atom": [-9.050229], "formation_energy_per_atom": [-2.951937], "homogeneous_poisson": [0.261], "is_gap_direct": [false], "is_magnetic": [false], "is_metal": [false], "is_stable": [true], "nelements": [3], "nsites": [12], "num_magnetic_sites": [0], "num_unique_magnetic_sites": [0], "theoretical": [false], "total_magnetization": [0.0], "total_magnetization_normalized_formula_units": [0.0], "total_magnetization_normalized_vol": [0.0], "uncorrected_energy_per_atom": [-12.05173], "universal_anisotropy": [0.742], "volume": [108.6313], "cbm": [5.6084], "equilibrium_reaction_energy_per_atom": [-0.01899587], "vbm": [3.1495]}