{"includesElement": ["", "Y", "Co"], "includesElement___series_id": [8], "includesElement__abundance_crust": [33.0, 25.0], "includesElement__atomic_number": [39, 27], "includesElement__atomic_radius": [180.0, 135.0], "includesElement__atomic_radius_rahm": [274.0, 233.0], "includesElement__atomic_volume": [19.8, 6.7], "includesElement__atomic_weight": [88.90584, 58.93319], "includesElement__covalent_radius_cordero": [190.0, 138.0], "includesElement__covalent_radius_pyykko": [163.0, 111.0], "includesElement__covalent_radius_pyykko_double": [130.0, 103.0], "includesElement__covalent_radius_pyykko_triple": [124.0, 96.0], "includesElement__density": [4.47, 8.86], "includesElement__dipole_polarizability": [162.0, 55.0], "includesElement__dipole_polarizability_unc": [12.0, 4.0], "includesElement__discovery_year": [1789, 1739], "includesElement__electron_affinity": [0.307, 0.6622565], "includesElement__electronegativity_allred-rochow": [0.0001129135, 0.0003165327], "includesElement__electronegativity_cottrell-sutton": [0.1356647, 0.1874437], "includesElement__electronegativity_ghosh": [0.1216986, 0.1432363], "includesElement__electronegativity_gordy": [0.01840491, 0.03513514], "includesElement__electronegativity_mulliken": [3.26213, 4.271633], "includesElement__electronegativity_nagle": [0.2645668, 0.5469655], "includesElement__electronegativity_pauling": [1.22, 1.88], "includesElement__electronegativity_sanderson": [0.3923941, 0.8832424], "includesElement__en_ghosh": [0.1216986, 0.1432363], "includesElement__en_pauling": [1.22, 1.88], "includesElement__evaporation_heat": [367.0, 389.1], "includesElement__fusion_heat": [11.5, 15.48], "includesElement__glawe_number": [21, 70], "includesElement__group_id": [3, 9], "includesElement__heat_of_formation": [424.7, 426.7], "includesElement__is_radioactive": [false], "includesElement__lattice_constant": [3.65, 2.51], "includesElement__mendeleev_number": [12, 63], "includesElement__molar_heat_capacity": [26.53, 24.81], "includesElement__period": [5, 4], "includesElement__pettifor_number": [19, 64], "includesElement__specific_heat_capacity": [0.298, 0.421], "includesElement__vdw_radius": [232.0, 200.0], "includesElement__vdw_radius_alvarez": [275.0, 240.0], "includesElement__vdw_radius_mm3": [271.0, 223.0], "includesElement__vdw_radius_uff": [334.5, 287.2], "includesElement__abundance_sea": [1.3e-05, 2e-05], "includesElement__atomic_weight_uncertainty": [2e-05, 4e-06], "includesElement__c6_gb": [2600.0, 461.0], "includesElement__electronegativity_allen": [6.631, 10.86], "includesElement__en_allen": [6.631, 10.86], "includesElement__metallic_radius": [162.0, 116.0], "includesElement__metallic_radius_c12": [180.0, 125.0], "includesElement__vdw_radius_batsanov": [240.0, 200.0], "includesElement__is_monoisotopic": [true], "includesElement__gas_basicity": [945.9, 719.8], "includesElement__proton_affinity": [967.0, 742.7], "includesElement__covalent_radius_bragg": [137.0], "includesElement__thermal_conductivity": [100.0], "includesElement__c6": [408.0], "formula": ["Co5Y1"], "spacegroup": ["65"], "thermalConductivity": [4.02615], "icsd": ["625597"], "band_gap": [0.0], "density": [7.647614], "density_atomic": [13.88093], "deprecated": [false], "efermi": [4.364523], "energy_above_hull": [0.01198846], "energy_per_atom": [-7.105847], "formation_energy_per_atom": [-0.07648427], "homogeneous_poisson": [0.366], "is_gap_direct": [false], "is_magnetic": [true], "is_metal": [true], "is_stable": [false], "nelements": [2], "nsites": [6], "num_magnetic_sites": [6], "num_unique_magnetic_sites": [3], "theoretical": [false], "total_magnetization": [7.19003], "total_magnetization_normalized_formula_units": [7.19003], "total_magnetization_normalized_vol": [0.08632983], "uncorrected_energy_per_atom": [-7.105847], "universal_anisotropy": [0.663], "volume": [83.28558]}