{"includesElement": ["", "Pd", "Yb"], "includesElement___series_id": [8, 9], "includesElement__abundance_crust": [0.015, 3.2], "includesElement__atomic_number": [46, 70], "includesElement__atomic_radius": [140.0, 175.0], "includesElement__atomic_radius_rahm": [215.0, 277.0], "includesElement__atomic_volume": [8.9, 24.8], "includesElement__atomic_weight": [106.42, 173.045], "includesElement__covalent_radius_cordero": [139.0, 187.0], "includesElement__covalent_radius_pyykko": [120.0, 170.0], "includesElement__covalent_radius_pyykko_double": [117.0, 129.0], "includesElement__covalent_radius_pyykko_triple": [112.0], "includesElement__density": [12.0, 6.9], "includesElement__dipole_polarizability": [26.14, 139.0], "includesElement__dipole_polarizability_unc": [0.1, 6.0], "includesElement__discovery_year": [1803, 1878], "includesElement__electron_affinity": [0.562, -0.02], "includesElement__electronegativity_allred-rochow": [0.0004756944, 9.861592e-05], "includesElement__electronegativity_cottrell-sutton": [0.2389212, 0.1294786], "includesElement__electronegativity_ghosh": [0.1440276, 0.22119], "includesElement__electronegativity_gordy": [0.05708333, 0.01676471], "includesElement__electronegativity_mulliken": [4.44943, 3.11708], "includesElement__electronegativity_nagle": [0.7259357, 0.4864465], "includesElement__electronegativity_pauling": [2.2], "includesElement__electronegativity_sanderson": [1.124263, 0.5176678], "includesElement__en_ghosh": [0.1440276, 0.22119], "includesElement__en_pauling": [2.2], "includesElement__evaporation_heat": [372.4, 159.0], "includesElement__fusion_heat": [17.24, 3.35], "includesElement__glawe_number": [65, 18], "includesElement__group_id": [10], "includesElement__heat_of_formation": [376.6, 155.6], "includesElement__is_radioactive": [false], "includesElement__lattice_constant": [3.89, 5.49], "includesElement__mendeleev_number": [68, 39], "includesElement__molar_heat_capacity": [25.98, 26.74], "includesElement__period": [5, 6], "includesElement__pettifor_number": [69, 17], "includesElement__specific_heat_capacity": [0.246, 0.155], "includesElement__vdw_radius": [210.0, 226.0], "includesElement__vdw_radius_alvarez": [215.0, 280.0], "includesElement__vdw_radius_mm3": [237.0, 279.0], "includesElement__vdw_radius_uff": [289.9, 335.5], "includesElement__atomic_weight_uncertainty": [0.01], "includesElement__c6_gb": [628.0, 1910.0], "includesElement__electronegativity_allen": [9.402], "includesElement__en_allen": [9.402], "includesElement__metallic_radius": [128.0], "includesElement__metallic_radius_c12": [137.0], "includesElement__thermal_conductivity": [71.8], "includesElement__vdw_radius_batsanov": [205.0], "includesElement__gas_basicity": [673.4], "includesElement__proton_affinity": [696.0], "includesElement__abundance_sea": [8.2e-07], "formula": ["Pd1Yb1"], "spacegroup": ["221"], "thermalConductivity": [3.26732], "icsd": ["105747"], "band_gap": [0.0], "density": [11.273], "density_atomic": [20.58256], "deprecated": [false], "efermi": [3.393691], "homogeneous_poisson": [-1.368], "is_gap_direct": [false], "is_magnetic": [false], "is_metal": [true], "is_stable": [false], "nelements": [2], "nsites": [2], "num_magnetic_sites": [0], "num_unique_magnetic_sites": [0], "theoretical": [false], "total_magnetization": [0.0013637], "total_magnetization_normalized_formula_units": [0.0013637], "total_magnetization_normalized_vol": [3.312756e-05], "universal_anisotropy": [-5.025], "volume": [41.16512]}