{"includesElement": ["", "N", "Ru"], "includesElement___series_id": [1, 8], "includesElement__abundance_crust": [19.0, 0.001], "includesElement__atomic_number": [7, 44], "includesElement__atomic_radius": [65.0, 130.0], "includesElement__atomic_radius_rahm": [179.0, 237.0], "includesElement__atomic_volume": [17.3, 8.3], "includesElement__atomic_weight": [14.007, 101.07], "includesElement__covalent_radius_cordero": [71.0, 146.0], "includesElement__covalent_radius_pyykko": [71.0, 125.0], "includesElement__covalent_radius_pyykko_double": [60.0, 114.0], "includesElement__covalent_radius_pyykko_triple": [54.0, 103.0], "includesElement__density": [0.001145, 12.1], "includesElement__dipole_polarizability": [7.4, 72.0], "includesElement__dipole_polarizability_unc": [0.2, 10.0], "includesElement__discovery_year": [1772, 1844], "includesElement__electron_affinity": [-1.4, 1.05], "includesElement__electronegativity_allred-rochow": [0.000773656, 0.000208], "includesElement__electronegativity_cottrell-sutton": [0.2343706, 0.1612452], "includesElement__electronegativity_ghosh": [0.26493, 0.1376494], "includesElement__electronegativity_gordy": [0.05492958, 0.026], "includesElement__electronegativity_mulliken": [6.567065, 4.20525], "includesElement__electronegativity_nagle": [0.8774979, 0.4807499], "includesElement__electronegativity_pauling": [3.04, 2.2], "includesElement__electronegativity_sanderson": [0.577482, 0.9579373], "includesElement__en_ghosh": [0.26493, 0.1376494], "includesElement__en_pauling": [3.04, 2.2], "includesElement__glawe_number": [88, 61], "includesElement__group_id": [15, 8], "includesElement__heat_of_formation": [472.44, 650.6], "includesElement__is_radioactive": [false], "includesElement__lattice_constant": [4.039, 2.7], "includesElement__mendeleev_number": [93, 60], "includesElement__molar_heat_capacity": [29.124, 24.06], "includesElement__period": [2, 5], "includesElement__pettifor_number": [100, 63], "includesElement__specific_heat_capacity": [1.04, 0.238], "includesElement__vdw_radius": [155.0, 213.0], "includesElement__vdw_radius_alvarez": [166.0, 246.0], "includesElement__vdw_radius_mm3": [193.0, 234.0], "includesElement__vdw_radius_uff": [366.0, 296.3], "includesElement__abundance_sea": [0.5, 7e-07], "includesElement__c6_gb": [25.7, 809.0], "includesElement__covalent_radius_bragg": [65.0], "includesElement__electronegativity_allen": [18.13, 9.1], "includesElement__en_allen": [18.13, 9.1], "includesElement__metallic_radius_c12": [53.0, 134.0], "includesElement__thermal_conductivity": [0.026, 117.0], "includesElement__vdw_radius_batsanov": [160.0, 205.0], "includesElement__c6": [24.2], "includesElement__vdw_radius_dreiding": [366.21], "includesElement__gas_basicity": [318.7, 751.4], "includesElement__proton_affinity": [342.2, 774.0], "includesElement__vdw_radius_bondi": [155.0], "includesElement__vdw_radius_rt": [164.0], "includesElement__fusion_heat": [25.5], "includesElement__atomic_weight_uncertainty": [0.02], "includesElement__metallic_radius": [125.0], "formula": ["N2Ru2"], "spacegroup": ["194"], "thermalConductivity": [14.9565], "icsd": ["185562"], "band_gap": [0.0], "density": [9.473699], "density_atomic": [10.08526], "deprecated": [false], "efermi": [8.52247], "energy_above_hull": [0.4969867], "energy_per_atom": [-16.77966], "formation_energy_per_atom": [0.4969867], "is_gap_direct": [false], "is_magnetic": [true], "is_metal": [true], "is_stable": [false], "nelements": [2], "nsites": [4], "num_magnetic_sites": [2], "num_unique_magnetic_sites": [1], "theoretical": [true], "total_magnetization": [0.2408093], "total_magnetization_normalized_formula_units": [0.1204047], "total_magnetization_normalized_vol": [0.00596934], "uncorrected_energy_per_atom": [-8.127962], "volume": [40.34102]}