{"includesElement": ["", "P", "Ru"], "includesElement___series_id": [1, 8], "includesElement__abundance_crust": [1050.0, 0.001], "includesElement__atomic_number": [15, 44], "includesElement__atomic_radius": [100.0, 130.0], "includesElement__atomic_radius_rahm": [223.0, 237.0], "includesElement__atomic_volume": [17.0, 8.3], "includesElement__atomic_weight": [30.97376, 101.07], "includesElement__covalent_radius_cordero": [107.0, 146.0], "includesElement__covalent_radius_pyykko": [111.0, 125.0], "includesElement__covalent_radius_pyykko_double": [102.0, 114.0], "includesElement__covalent_radius_pyykko_triple": [94.0, 103.0], "includesElement__density": [1.823, 12.1], "includesElement__dipole_polarizability": [25.0, 72.0], "includesElement__dipole_polarizability_unc": [1.0, 10.0], "includesElement__discovery_year": [1669, 1844], "includesElement__electron_affinity": [0.746607, 1.05], "includesElement__electronegativity_allred-rochow": [0.0003895788, 0.000208], "includesElement__electronegativity_cottrell-sutton": [0.2079501, 0.1612452], "includesElement__electronegativity_ghosh": [0.206931, 0.1376494], "includesElement__electronegativity_gordy": [0.04324324, 0.026], "includesElement__electronegativity_mulliken": [5.616646, 4.20525], "includesElement__electronegativity_nagle": [0.5848035, 0.4807499], "includesElement__electronegativity_pauling": [2.19, 2.2], "includesElement__electronegativity_sanderson": [0.4510269, 0.9579373], "includesElement__en_ghosh": [0.206931, 0.1376494], "includesElement__en_pauling": [2.19, 2.2], "includesElement__evaporation_heat": [49.8], "includesElement__fusion_heat": [2.51, 25.5], "includesElement__glawe_number": [89, 61], "includesElement__group_id": [15, 8], "includesElement__heat_of_formation": [316.5, 650.6], "includesElement__is_radioactive": [false], "includesElement__lattice_constant": [7.17, 2.7], "includesElement__mendeleev_number": [94, 60], "includesElement__molar_heat_capacity": [23.824, 24.06], "includesElement__period": [3, 5], "includesElement__pettifor_number": [90, 63], "includesElement__specific_heat_capacity": [0.769, 0.238], "includesElement__vdw_radius": [180.0, 213.0], "includesElement__vdw_radius_alvarez": [190.0, 246.0], "includesElement__vdw_radius_mm3": [222.0, 234.0], "includesElement__vdw_radius_uff": [414.7, 296.3], "includesElement__abundance_sea": [0.06, 7e-07], "includesElement__atomic_weight_uncertainty": [5e-09, 0.02], "includesElement__c6_gb": [187.0, 809.0], "includesElement__electronegativity_allen": [13.33, 9.1], "includesElement__en_allen": [13.33, 9.1], "includesElement__metallic_radius": [110.0, 125.0], "includesElement__metallic_radius_c12": [128.0, 134.0], "includesElement__vdw_radius_batsanov": [195.0, 205.0], "includesElement__c6": [185.0], "includesElement__is_monoisotopic": [true], "includesElement__vdw_radius_dreiding": [415.0], "includesElement__gas_basicity": [604.8, 751.4], "includesElement__proton_affinity": [626.8, 774.0], "includesElement__vdw_radius_bondi": [180.0], "includesElement__thermal_conductivity": [117.0], "formula": ["P4Ru2"], "spacegroup": ["58"], "thermalConductivity": [20.7771], "icsd": ["42607"], "band_gap": [0.4792], "density": [6.197071], "density_atomic": [14.56048], "deprecated": [false], "efermi": [8.182807], "energy_above_hull": [0.0], "energy_per_atom": [-15.1505], "formation_energy_per_atom": [-0.6742736], "is_gap_direct": [false], "is_magnetic": [false], "is_metal": [false], "is_stable": [true], "nelements": [2], "nsites": [6], "num_magnetic_sites": [0], "num_unique_magnetic_sites": [0], "theoretical": [false], "total_magnetization": [0.0], "total_magnetization_normalized_formula_units": [0.0], "total_magnetization_normalized_vol": [0.0], "uncorrected_energy_per_atom": [-15.1505], "volume": [87.36288], "cbm": [8.4651], "e_electronic": [19.85728], "e_ionic": [12.15601], "e_total": [32.01329], "equilibrium_reaction_energy_per_atom": [-0.07674552], "n": [4.45615], "vbm": [7.9859]}