{"includesElement": ["", "Er", "C"], "includesElement___series_id": [9, 1], "includesElement__abundance_crust": [3.5, 200.0], "includesElement__atomic_number": [68, 6], "includesElement__atomic_radius": [175.0, 70.0], "includesElement__atomic_radius_rahm": [272.0, 190.0], "includesElement__atomic_volume": [18.4, 5.3], "includesElement__atomic_weight": [167.259, 12.011], "includesElement__covalent_radius_cordero": [189.0, 73.0], "includesElement__covalent_radius_pyykko": [165.0, 75.0], "includesElement__covalent_radius_pyykko_double": [133.0, 67.0], "includesElement__density": [9.07, 2.2], "includesElement__dipole_polarizability": [150.0, 11.3], "includesElement__dipole_polarizability_unc": [10.0, 0.2], "includesElement__discovery_year": [1843], "includesElement__electronegativity_allred-rochow": [0.0001046832, 0.0005777778], "includesElement__electronegativity_cottrell-sutton": [0.1314257, 0.2081666], "includesElement__electronegativity_ghosh": [0.212261, 0.224776], "includesElement__electronegativity_gordy": [0.01727273, 0.04333333], "includesElement__electronegativity_mulliken": [3.05385, 6.261208], "includesElement__electronegativity_nagle": [0.4536061, 0.7073926], "includesElement__electronegativity_pauling": [1.24, 2.55], "includesElement__electronegativity_sanderson": [0.5576573, 0.427525], "includesElement__en_ghosh": [0.212261, 0.224776], "includesElement__en_pauling": [1.24, 2.55], "includesElement__evaporation_heat": [317.0], "includesElement__glawe_number": [22, 87], "includesElement__heat_of_formation": [316.4, 716.87], "includesElement__is_radioactive": [false], "includesElement__lattice_constant": [3.56, 3.57], "includesElement__mendeleev_number": [35, 87], "includesElement__molar_heat_capacity": [28.12, 8.517], "includesElement__period": [6, 2], "includesElement__pettifor_number": [23, 95], "includesElement__specific_heat_capacity": [0.168, 0.709], "includesElement__vdw_radius": [229.0, 170.0], "includesElement__vdw_radius_alvarez": [283.0, 177.0], "includesElement__vdw_radius_mm3": [267.0, 204.0], "includesElement__vdw_radius_uff": [339.1, 385.1], "includesElement__abundance_sea": [8.7e-07, 28.0], "includesElement__atomic_weight_uncertainty": [0.003], "includesElement__c6_gb": [2150.0, 47.9], "includesElement__covalent_radius_pyykko_triple": [60.0], "includesElement__electron_affinity": [1.262119], "includesElement__group_id": [14], "includesElement__covalent_radius_bragg": [77.0], "includesElement__electronegativity_allen": [15.05], "includesElement__en_allen": [15.05], "includesElement__metallic_radius_c12": [86.0], "includesElement__thermal_conductivity": [1.59], "includesElement__vdw_radius_batsanov": [170.0], "includesElement__c6": [46.6], "includesElement__vdw_radius_dreiding": [389.83], "includesElement__vdw_radius_bondi": [170.0], "includesElement__vdw_radius_rt": [177.0], "formula": ["C2Er1"], "spacegroup": ["139"], "thermalConductivity": [10.0905], "icsd": ["23689"], "band_gap": [0.0], "density": [7.859876], "density_atomic": [13.47047], "deprecated": [false], "efermi": [4.428759], "energy_above_hull": [0.08034502], "energy_per_atom": [-7.870487], "formation_energy_per_atom": [-0.1954705], "is_gap_direct": [false], "is_magnetic": [false], "is_metal": [true], "is_stable": [false], "nelements": [2], "nsites": [3], "num_magnetic_sites": [0], "num_unique_magnetic_sites": [0], "theoretical": [false], "total_magnetization": [0.0006112], "total_magnetization_normalized_formula_units": [0.0006112], "total_magnetization_normalized_vol": [1.512445e-05], "uncorrected_energy_per_atom": [-7.870487], "volume": [40.4114]}