{"includesElement": ["", "P", "W"], "includesElement___series_id": [1, 8], "includesElement__abundance_crust": [1050.0, 1.25], "includesElement__atomic_number": [15, 74], "includesElement__atomic_radius": [100.0, 135.0], "includesElement__atomic_radius_rahm": [223.0, 253.0], "includesElement__atomic_volume": [17.0, 9.53], "includesElement__atomic_weight": [30.97376, 183.84], "includesElement__covalent_radius_cordero": [107.0, 162.0], "includesElement__covalent_radius_pyykko": [111.0, 137.0], "includesElement__covalent_radius_pyykko_double": [102.0, 120.0], "includesElement__covalent_radius_pyykko_triple": [94.0, 115.0], "includesElement__density": [1.823, 19.3], "includesElement__dipole_polarizability": [25.0, 68.0], "includesElement__dipole_polarizability_unc": [1.0, 15.0], "includesElement__discovery_year": [1669, 1783], "includesElement__electron_affinity": [0.746607, 0.81626], "includesElement__electronegativity_allred-rochow": [0.0003895788, 0.0001838137], "includesElement__electronegativity_cottrell-sutton": [0.2079501, 0.1586899], "includesElement__electronegativity_ghosh": [0.206931, 0.2390504], "includesElement__electronegativity_gordy": [0.04324324, 0.02518248], "includesElement__electronegativity_mulliken": [5.616646, 4.340145], "includesElement__electronegativity_nagle": [0.5848035, 0.4451921], "includesElement__electronegativity_pauling": [2.19, 1.7], "includesElement__electronegativity_sanderson": [0.4510269, 1.019283], "includesElement__en_ghosh": [0.206931, 0.2390504], "includesElement__en_pauling": [2.19, 1.7], "includesElement__evaporation_heat": [49.8, 824.0], "includesElement__fusion_heat": [2.51, 35.0], "includesElement__glawe_number": [89, 57], "includesElement__group_id": [15, 6], "includesElement__heat_of_formation": [316.5, 851.0], "includesElement__is_radioactive": [false], "includesElement__lattice_constant": [7.17, 3.16], "includesElement__mendeleev_number": [94, 53], "includesElement__molar_heat_capacity": [23.824, 24.27], "includesElement__period": [3, 6], "includesElement__pettifor_number": [90, 56], "includesElement__specific_heat_capacity": [0.769, 0.132], "includesElement__vdw_radius": [180.0, 218.0], "includesElement__vdw_radius_alvarez": [190.0, 257.0], "includesElement__vdw_radius_mm3": [222.0, 239.0], "includesElement__vdw_radius_uff": [414.7, 309.6], "includesElement__abundance_sea": [0.06, 0.0001], "includesElement__atomic_weight_uncertainty": [5e-09, 0.01], "includesElement__c6_gb": [187.0, 757.0], "includesElement__electronegativity_allen": [13.33, 8.67], "includesElement__en_allen": [13.33, 8.67], "includesElement__metallic_radius": [110.0, 130.0], "includesElement__metallic_radius_c12": [128.0, 139.0], "includesElement__vdw_radius_batsanov": [195.0, 210.0], "includesElement__c6": [185.0], "includesElement__is_monoisotopic": [true], "includesElement__vdw_radius_dreiding": [415.0], "includesElement__gas_basicity": [604.8], "includesElement__proton_affinity": [626.8], "includesElement__vdw_radius_bondi": [180.0], "includesElement__thermal_conductivity": [173.0], "formula": ["P4W2"], "spacegroup": ["36"], "thermalConductivity": [20.5636], "icsd": ["37223"], "band_gap": [0.0], "density": [9.205433], "density_atomic": [14.77895], "deprecated": [false], "efermi": [8.586541], "energy_above_hull": [0.0], "energy_per_atom": [-23.50549], "formation_energy_per_atom": [-0.3815033], "homogeneous_poisson": [0.215], "is_gap_direct": [false], "is_magnetic": [false], "is_metal": [true], "is_stable": [true], "nelements": [2], "nsites": [6], "num_magnetic_sites": [0], "num_unique_magnetic_sites": [0], "theoretical": [false], "total_magnetization": [0.0], "total_magnetization_normalized_formula_units": [0.0], "total_magnetization_normalized_vol": [0.0], "uncorrected_energy_per_atom": [-23.50549], "universal_anisotropy": [0.154], "volume": [88.67367], "equilibrium_reaction_energy_per_atom": [-0.1386639]}