{"includesElement": ["", "Ta", "B"], "includesElement___series_id": [8, 5], "includesElement__abundance_crust": [2.0, 10.0], "includesElement__atomic_number": [73, 5], "includesElement__atomic_radius": [145.0, 85.0], "includesElement__atomic_radius_rahm": [258.0, 205.0], "includesElement__atomic_volume": [10.9, 4.6], "includesElement__atomic_weight": [180.9479, 10.81], "includesElement__covalent_radius_cordero": [170.0, 84.0], "includesElement__covalent_radius_pyykko": [146.0, 85.0], "includesElement__covalent_radius_pyykko_double": [126.0, 78.0], "includesElement__covalent_radius_pyykko_triple": [119.0, 73.0], "includesElement__density": [16.4, 2.34], "includesElement__dipole_polarizability": [74.0, 20.5], "includesElement__dipole_polarizability_unc": [20.0, 0.1], "includesElement__discovery_year": [1802, 1808], "includesElement__electron_affinity": [0.322, 0.279723], "includesElement__electronegativity_allred-rochow": [0.0001548133, 0.0003598616], "includesElement__electronegativity_cottrell-sutton": [0.1503421, 0.1748949], "includesElement__electronegativity_ghosh": [0.234581, 0.184886], "includesElement__electronegativity_gordy": [0.02260274, 0.03058824], "includesElement__electronegativity_mulliken": [3.935785, 4.288871], "includesElement__electronegativity_nagle": [0.4072985, 0.5269739], "includesElement__electronegativity_pauling": [1.5, 2.04], "includesElement__electronegativity_sanderson": [0.8358832, 0.2546274], "includesElement__en_ghosh": [0.234581, 0.184886], "includesElement__en_pauling": [1.5, 2.04], "includesElement__evaporation_heat": [758.0, 504.5], "includesElement__fusion_heat": [24.7, 23.6], "includesElement__glawe_number": [52, 86], "includesElement__group_id": [5, 13], "includesElement__heat_of_formation": [782.0, 565.0], "includesElement__is_radioactive": [false], "includesElement__lattice_constant": [3.31, 8.73], "includesElement__mendeleev_number": [49, 81], "includesElement__molar_heat_capacity": [25.36, 11.087], "includesElement__period": [6, 2], "includesElement__pettifor_number": [53, 86], "includesElement__specific_heat_capacity": [0.14, 1.026], "includesElement__vdw_radius": [222.0, 192.0], "includesElement__vdw_radius_alvarez": [253.0, 191.0], "includesElement__vdw_radius_mm3": [243.0, 215.0], "includesElement__vdw_radius_uff": [317.0, 408.3], "includesElement__abundance_sea": [2e-06, 4.44], "includesElement__atomic_weight_uncertainty": [2e-05], "includesElement__c6_gb": [887.0, 99.2], "includesElement__electronegativity_allen": [7.93, 12.13], "includesElement__en_allen": [7.93, 12.13], "includesElement__metallic_radius": [134.0, 80.0], "includesElement__metallic_radius_c12": [146.0, 98.0], "includesElement__thermal_conductivity": [57.5, 27.4], "includesElement__vdw_radius_batsanov": [220.0, 180.0], "includesElement__c6": [99.5], "includesElement__vdw_radius_dreiding": [402.0], "includesElement__vdw_radius_truhlar": [192.0], "formula": ["B4Ta6"], "spacegroup": ["127"], "thermalConductivity": [21.3692], "icsd": ["107320"], "band_gap": [0.0], "density": [14.87938], "density_atomic": [12.59888], "deprecated": [false], "efermi": [6.631035], "energy_above_hull": [0.0], "energy_per_atom": [-32.8159], "formation_energy_per_atom": [-0.7222629], "is_gap_direct": [false], "is_magnetic": [false], "is_metal": [true], "is_stable": [true], "nelements": [2], "nsites": [10], "num_magnetic_sites": [0], "num_unique_magnetic_sites": [0], "theoretical": [false], "total_magnetization": [0.0], "total_magnetization_normalized_formula_units": [0.0], "total_magnetization_normalized_vol": [0.0], "uncorrected_energy_per_atom": [-32.8159], "volume": [125.9888], "equilibrium_reaction_energy_per_atom": [-0.03120597]}