{"includesElement": ["", "P", "B"], "includesElement___series_id": [1, 5], "includesElement__abundance_crust": [1050.0, 10.0], "includesElement__atomic_number": [15, 5], "includesElement__atomic_radius": [100.0, 85.0], "includesElement__atomic_radius_rahm": [223.0, 205.0], "includesElement__atomic_volume": [17.0, 4.6], "includesElement__atomic_weight": [30.97376, 10.81], "includesElement__covalent_radius_cordero": [107.0, 84.0], "includesElement__covalent_radius_pyykko": [111.0, 85.0], "includesElement__covalent_radius_pyykko_double": [102.0, 78.0], "includesElement__covalent_radius_pyykko_triple": [94.0, 73.0], "includesElement__density": [1.823, 2.34], "includesElement__dipole_polarizability": [25.0, 20.5], "includesElement__dipole_polarizability_unc": [1.0, 0.1], "includesElement__discovery_year": [1669, 1808], "includesElement__electron_affinity": [0.746607, 0.279723], "includesElement__electronegativity_allred-rochow": [0.0003895788, 0.0003598616], "includesElement__electronegativity_cottrell-sutton": [0.2079501, 0.1748949], "includesElement__electronegativity_ghosh": [0.206931, 0.184886], "includesElement__electronegativity_gordy": [0.04324324, 0.03058824], "includesElement__electronegativity_mulliken": [5.616646, 4.288871], "includesElement__electronegativity_nagle": [0.5848035, 0.5269739], "includesElement__electronegativity_pauling": [2.19, 2.04], "includesElement__electronegativity_sanderson": [0.4510269, 0.2546274], "includesElement__en_ghosh": [0.206931, 0.184886], "includesElement__en_pauling": [2.19, 2.04], "includesElement__evaporation_heat": [49.8, 504.5], "includesElement__fusion_heat": [2.51, 23.6], "includesElement__glawe_number": [89, 86], "includesElement__group_id": [15, 13], "includesElement__heat_of_formation": [316.5, 565.0], "includesElement__is_radioactive": [false], "includesElement__lattice_constant": [7.17, 8.73], "includesElement__mendeleev_number": [94, 81], "includesElement__molar_heat_capacity": [23.824, 11.087], "includesElement__period": [3, 2], "includesElement__pettifor_number": [90, 86], "includesElement__specific_heat_capacity": [0.769, 1.026], "includesElement__vdw_radius": [180.0, 192.0], "includesElement__vdw_radius_alvarez": [190.0, 191.0], "includesElement__vdw_radius_mm3": [222.0, 215.0], "includesElement__vdw_radius_uff": [414.7, 408.3], "includesElement__abundance_sea": [0.06, 4.44], "includesElement__atomic_weight_uncertainty": [5e-09], "includesElement__c6_gb": [187.0, 99.2], "includesElement__electronegativity_allen": [13.33, 12.13], "includesElement__en_allen": [13.33, 12.13], "includesElement__metallic_radius": [110.0, 80.0], "includesElement__metallic_radius_c12": [128.0, 98.0], "includesElement__vdw_radius_batsanov": [195.0, 180.0], "includesElement__c6": [185.0, 99.5], "includesElement__is_monoisotopic": [true], "includesElement__vdw_radius_dreiding": [415.0, 402.0], "includesElement__gas_basicity": [604.8], "includesElement__proton_affinity": [626.8], "includesElement__vdw_radius_bondi": [180.0], "includesElement__thermal_conductivity": [27.4], "includesElement__vdw_radius_truhlar": [192.0], "formula": ["B2P2", "BP"], "mp_id": ["mp-1008559"], "spacegroup": ["186"], "thermalConductivity": [65.9963, 438.5152, 463.6744], "icsd": ["615155"], "band_gap": [1.0624], "density": [2.979764], "density_atomic": [11.64274], "deprecated": [false], "efermi": [7.757343], "energy_above_hull": [0.01407636], "energy_per_atom": [-8.643443], "formation_energy_per_atom": [-0.4692279], "homogeneous_poisson": [0.125], "is_gap_direct": [false], "is_magnetic": [false], "is_metal": [false], "is_stable": [false], "nelements": [2], "nsites": [4], "num_magnetic_sites": [0], "num_unique_magnetic_sites": [0], "theoretical": [false], "total_magnetization": [0.0], "total_magnetization_normalized_formula_units": [0.0], "total_magnetization_normalized_vol": [0.0], "uncorrected_energy_per_atom": [-8.643443], "universal_anisotropy": [0.142], "volume": [46.57095], "cbm": [8.7818], "e_electronic": [9.155521], "e_ionic": [0.1057111], "e_total": [9.261232], "n": [3.025809], "vbm": [7.7194], "e_ij_max": [0.2405247]}