{"includesElement": ["", "Mg", "Y"], "includesElement___series_id": [4, 8], "includesElement__abundance_crust": [23300.0, 33.0], "includesElement__atomic_number": [12, 39], "includesElement__atomic_radius": [150.0, 180.0], "includesElement__atomic_radius_rahm": [240.0, 274.0], "includesElement__atomic_volume": [14.0, 19.8], "includesElement__atomic_weight": [24.305, 88.90584], "includesElement__covalent_radius_cordero": [141.0, 190.0], "includesElement__covalent_radius_pyykko": [139.0, 163.0], "includesElement__covalent_radius_pyykko_double": [132.0, 130.0], "includesElement__covalent_radius_pyykko_triple": [127.0, 124.0], "includesElement__density": [1.74, 4.47], "includesElement__dipole_polarizability": [71.2, 162.0], "includesElement__dipole_polarizability_unc": [0.4, 12.0], "includesElement__discovery_year": [1808, 1789], "includesElement__electronegativity_allred-rochow": [0.0001475079, 0.0001129135], "includesElement__electronegativity_cottrell-sutton": [0.1431908, 0.1356647], "includesElement__electronegativity_ghosh": [0.121644, 0.1216986], "includesElement__electronegativity_gordy": [0.0205036, 0.01840491], "includesElement__electronegativity_mulliken": [3.823117, 3.26213], "includesElement__electronegativity_nagle": [0.3039835, 0.2645668], "includesElement__electronegativity_pauling": [1.31, 1.22], "includesElement__electronegativity_sanderson": [0.1524211, 0.3923941], "includesElement__en_ghosh": [0.121644, 0.1216986], "includesElement__en_pauling": [1.31, 1.22], "includesElement__evaporation_heat": [131.8, 367.0], "includesElement__fusion_heat": [9.2, 11.5], "includesElement__glawe_number": [73, 21], "includesElement__group_id": [2, 3], "includesElement__heat_of_formation": [147.1, 424.7], "includesElement__is_radioactive": [false], "includesElement__lattice_constant": [3.21, 3.65], "includesElement__mendeleev_number": [76, 12], "includesElement__molar_heat_capacity": [24.869, 26.53], "includesElement__period": [3, 5], "includesElement__pettifor_number": [73, 19], "includesElement__specific_heat_capacity": [1.023, 0.298], "includesElement__vdw_radius": [173.0, 232.0], "includesElement__vdw_radius_alvarez": [251.0, 275.0], "includesElement__vdw_radius_mm3": [243.0, 271.0], "includesElement__vdw_radius_uff": [302.1, 334.5], "includesElement__abundance_sea": [1290.0, 1.3e-05], "includesElement__c6_gb": [629.0, 2600.0], "includesElement__covalent_radius_bragg": [142.0], "includesElement__electronegativity_allen": [7.646, 6.631], "includesElement__en_allen": [7.646, 6.631], "includesElement__metallic_radius": [136.0, 162.0], "includesElement__metallic_radius_c12": [160.0, 180.0], "includesElement__thermal_conductivity": [156.0], "includesElement__vdw_radius_batsanov": [220.0, 240.0], "includesElement__c6": [626.0], "includesElement__gas_basicity": [797.3, 945.9], "includesElement__proton_affinity": [819.6, 967.0], "includesElement__vdw_radius_bondi": [173.0], "includesElement__electron_affinity": [0.307], "includesElement__atomic_weight_uncertainty": [2e-05], "includesElement__is_monoisotopic": [true], "formula": ["Mg1Y1"], "spacegroup": ["221"], "thermalConductivity": [12.4829], "icsd": ["104889"], "band_gap": [0.0], "density": [3.402899], "density_atomic": [27.62219], "deprecated": [false], "efermi": [3.044518], "energy_above_hull": [0.0], "energy_per_atom": [-4.144158], "formation_energy_per_atom": [-0.07437748], "homogeneous_poisson": [0.287], "is_gap_direct": [false], "is_magnetic": [false], "is_metal": [true], "is_stable": [true], "nelements": [2], "nsites": [2], "num_magnetic_sites": [0], "num_unique_magnetic_sites": [0], "theoretical": [false], "total_magnetization": [1.01e-05], "total_magnetization_normalized_formula_units": [1.01e-05], "total_magnetization_normalized_vol": [1.82824e-07], "uncorrected_energy_per_atom": [-12.35085], "universal_anisotropy": [3.385], "volume": [55.24438], "equilibrium_reaction_energy_per_atom": [-0.03604625]}