{"includesElement": ["", "As", "Ti"], "includesElement___series_id": [5, 8], "includesElement__abundance_crust": [1.8, 5650.0], "includesElement__atomic_number": [33, 22], "includesElement__atomic_radius": [115.0, 140.0], "includesElement__atomic_radius_rahm": [231.0, 257.0], "includesElement__atomic_volume": [13.1, 10.6], "includesElement__atomic_weight": [74.92159, 47.867], "includesElement__covalent_radius_cordero": [119.0, 160.0], "includesElement__covalent_radius_pyykko": [121.0, 136.0], "includesElement__covalent_radius_pyykko_double": [114.0, 117.0], "includesElement__covalent_radius_pyykko_triple": [106.0, 108.0], "includesElement__density": [5.75, 4.506], "includesElement__dipole_polarizability": [30.0, 100.0], "includesElement__dipole_polarizability_unc": [1.0, 10.0], "includesElement__electron_affinity": [0.804, 0.079], "includesElement__electronegativity_allred-rochow": [0.0004302985, 0.0001703071], "includesElement__electronegativity_cottrell-sutton": [0.22818, 0.1521899], "includesElement__electronegativity_ghosh": [0.2068208, 0.1233637], "includesElement__electronegativity_gordy": [0.05206612, 0.02316176], "includesElement__electronegativity_mulliken": [5.2965, 3.45356], "includesElement__electronegativity_nagle": [0.5503212, 0.3419952], "includesElement__electronegativity_pauling": [2.18, 1.54], "includesElement__electronegativity_sanderson": [0.8253373, 0.4055462], "includesElement__en_ghosh": [0.2068208, 0.1233637], "includesElement__en_pauling": [2.18, 1.54], "includesElement__evaporation_heat": [32.4, 422.6], "includesElement__glawe_number": [90, 51], "includesElement__group_id": [15, 4], "includesElement__heat_of_formation": [302.5, 473.0], "includesElement__is_radioactive": [false], "includesElement__lattice_constant": [4.13, 2.95], "includesElement__mendeleev_number": [95, 43], "includesElement__molar_heat_capacity": [24.64, 25.06], "includesElement__period": [4], "includesElement__pettifor_number": [89, 51], "includesElement__specific_heat_capacity": [0.329, 0.523], "includesElement__vdw_radius": [185.0, 211.0], "includesElement__vdw_radius_alvarez": [188.0, 246.0], "includesElement__vdw_radius_mm3": [236.0, 239.0], "includesElement__vdw_radius_uff": [423.0, 317.5], "includesElement__abundance_sea": [0.0037, 0.001], "includesElement__atomic_weight_uncertainty": [6e-06, 0.001], "includesElement__c6_gb": [260.0, 1200.0], "includesElement__covalent_radius_bragg": [126.0, 140.0], "includesElement__electronegativity_allen": [13.08, 8.17], "includesElement__en_allen": [13.08, 8.17], "includesElement__metallic_radius": [121.0, 132.0], "includesElement__metallic_radius_c12": [148.0, 147.0], "includesElement__vdw_radius_batsanov": [205.0, 215.0], "includesElement__c6": [246.0, 1044.0], "includesElement__is_monoisotopic": [true], "includesElement__vdw_radius_dreiding": [415.0], "includesElement__vdw_radius_bondi": [185.0], "includesElement__discovery_year": [1791], "includesElement__fusion_heat": [18.8], "includesElement__thermal_conductivity": [21.9], "includesElement__gas_basicity": [853.7], "includesElement__proton_affinity": [876.0], "formula": ["As2Ti6"], "spacegroup": ["223"], "thermalConductivity": [4.25998], "icsd": ["611501"], "band_gap": [0.0], "density": [5.730682], "density_atomic": [15.82994], "deprecated": [false], "efermi": [7.225628], "energy_above_hull": [0.1647877], "energy_per_atom": [-13.94214], "formation_energy_per_atom": [-0.5619415], "homogeneous_poisson": [0.342], "is_gap_direct": [false], "is_magnetic": [false], "is_metal": [true], "is_stable": [false], "nelements": [2], "nsites": [8], "num_magnetic_sites": [0], "num_unique_magnetic_sites": [0], "theoretical": [true], "total_magnetization": [0.11904], "total_magnetization_normalized_formula_units": [0.05952], "total_magnetization_normalized_vol": [0.0009399911], "uncorrected_energy_per_atom": [-7.584106], "universal_anisotropy": [1.227], "volume": [126.6395]}