{"includesElement": ["", "Si", "K"], "includesElement___series_id": [5, 3], "includesElement__abundance_crust": [282000.0, 20900.0], "includesElement__atomic_number": [14, 19], "includesElement__atomic_radius": [110.0, 220.0], "includesElement__atomic_radius_rahm": [232.0, 234.0], "includesElement__atomic_volume": [12.1, 45.3], "includesElement__atomic_weight": [28.085, 39.0983], "includesElement__covalent_radius_cordero": [111.0, 203.0], "includesElement__covalent_radius_pyykko": [116.0, 196.0], "includesElement__covalent_radius_pyykko_double": [107.0, 193.0], "includesElement__covalent_radius_pyykko_triple": [102.0], "includesElement__density": [2.3296, 0.89], "includesElement__dipole_polarizability": [37.3, 289.7], "includesElement__dipole_polarizability_unc": [0.7, 0.3], "includesElement__discovery_year": [1824, 1807], "includesElement__electron_affinity": [1.389521, 0.50147], "includesElement__electronegativity_allred-rochow": [0.0003084126, 5.726781e-05], "includesElement__electronegativity_cottrell-sutton": [0.1891451, 0.1059457], "includesElement__electronegativity_ghosh": [0.178503, 0.0981896], "includesElement__electronegativity_gordy": [0.03577586, 0.01122449], "includesElement__electronegativity_mulliken": [4.770602, 2.421067], "includesElement__electronegativity_nagle": [0.4750986, 0.1511299], "includesElement__electronegativity_pauling": [1.9, 0.82], "includesElement__electronegativity_sanderson": [0.3468158, 0.1218383], "includesElement__en_ghosh": [0.178503, 0.0981896], "includesElement__en_pauling": [1.9, 0.82], "includesElement__evaporation_heat": [383.0, 2.33], "includesElement__fusion_heat": [50.6, 102.5], "includesElement__glawe_number": [85, 10], "includesElement__group_id": [14, 1], "includesElement__heat_of_formation": [450.0, 89.0], "includesElement__is_radioactive": [false], "includesElement__lattice_constant": [5.43, 5.23], "includesElement__mendeleev_number": [88, 3], "includesElement__molar_heat_capacity": [19.99, 29.6], "includesElement__period": [3, 4], "includesElement__pettifor_number": [85, 10], "includesElement__specific_heat_capacity": [0.712, 0.757], "includesElement__vdw_radius": [210.0, 275.0], "includesElement__vdw_radius_alvarez": [219.0, 273.0], "includesElement__vdw_radius_mm3": [229.0, 309.0], "includesElement__vdw_radius_uff": [429.5, 381.2], "includesElement__abundance_sea": [2.2, 399.0], "includesElement__c6_gb": [308.0, 3910.0], "includesElement__covalent_radius_bragg": [117.0, 207.0], "includesElement__electronegativity_allen": [11.33, 4.34], "includesElement__en_allen": [11.33, 4.34], "includesElement__metallic_radius": [117.0, 203.0], "includesElement__metallic_radius_c12": [138.0, 235.0], "includesElement__thermal_conductivity": [149.0, 79.0], "includesElement__vdw_radius_batsanov": [210.0, 280.0], "includesElement__c6": [305.0, 3923.0], "includesElement__vdw_radius_dreiding": [427.0], "includesElement__gas_basicity": [814.1], "includesElement__proton_affinity": [837.0], "includesElement__vdw_radius_bondi": [210.0, 275.0], "includesElement__atomic_weight_uncertainty": [0.0001], "formula": ["K8Si46"], "spacegroup": ["223"], "thermalConductivity": [1.36355], "icsd": ["15641"], "band_gap": [0.0], "density": [2.448915], "density_atomic": [20.15027], "deprecated": [false], "efermi": [6.246682], "energy_above_hull": [0.01071943], "energy_per_atom": [-8.395506], "formation_energy_per_atom": [-0.02996421], "is_gap_direct": [false], "is_magnetic": [false], "is_metal": [true], "is_stable": [false], "nelements": [2], "nsites": [54], "num_magnetic_sites": [0], "num_unique_magnetic_sites": [0], "theoretical": [false], "total_magnetization": [1.8e-06], "total_magnetization_normalized_formula_units": [9e-07], "total_magnetization_normalized_vol": [1.654238e-09], "uncorrected_energy_per_atom": [-8.395506], "volume": [1088.114]}