{"includesElement": ["", "Cu", "Pt"], "includesElement___series_id": [8], "includesElement__abundance_crust": [60.0, 0.005], "includesElement__atomic_number": [29, 78], "includesElement__atomic_radius": [135.0], "includesElement__atomic_radius_rahm": [217.0, 230.0], "includesElement__atomic_volume": [7.1, 9.1], "includesElement__atomic_weight": [63.546, 195.084], "includesElement__covalent_radius_cordero": [132.0, 136.0], "includesElement__covalent_radius_pyykko": [112.0, 123.0], "includesElement__covalent_radius_pyykko_double": [115.0, 112.0], "includesElement__covalent_radius_pyykko_triple": [120.0, 110.0], "includesElement__density": [8.96, 21.5], "includesElement__dipole_polarizability": [46.5, 48.0], "includesElement__dipole_polarizability_unc": [0.5, 4.0], "includesElement__electron_affinity": [1.235, 2.128], "includesElement__electronegativity_allred-rochow": [0.0002949617, 0.0002346487], "includesElement__electronegativity_cottrell-sutton": [0.1817573, 0.1698876], "includesElement__electronegativity_ghosh": [0.1511716, 0.25691], "includesElement__electronegativity_gordy": [0.03303571, 0.02886179], "includesElement__electronegativity_mulliken": [4.48069, 5.543415], "includesElement__electronegativity_nagle": [0.6184623, 0.5928156], "includesElement__electronegativity_pauling": [1.9, 2.2], "includesElement__electronegativity_sanderson": [0.9175542, 1.45101], "includesElement__en_ghosh": [0.1511716, 0.25691], "includesElement__en_pauling": [1.9, 2.2], "includesElement__evaporation_heat": [304.6, 470.0], "includesElement__fusion_heat": [13.01, 21.76], "includesElement__glawe_number": [68, 64], "includesElement__group_id": [11, 10], "includesElement__heat_of_formation": [337.4, 565.7], "includesElement__is_radioactive": [false], "includesElement__lattice_constant": [3.61, 3.92], "includesElement__mendeleev_number": [71, 69], "includesElement__molar_heat_capacity": [24.44, 25.86], "includesElement__period": [4, 6], "includesElement__pettifor_number": [72, 68], "includesElement__specific_heat_capacity": [0.385, 0.133], "includesElement__vdw_radius": [196.0, 213.0], "includesElement__vdw_radius_alvarez": [238.0, 229.0], "includesElement__vdw_radius_mm3": [226.0, 239.0], "includesElement__vdw_radius_uff": [349.5, 275.4], "includesElement__abundance_sea": [0.00025], "includesElement__atomic_weight_uncertainty": [0.003, 0.009], "includesElement__c6_gb": [264.0, 470.0], "includesElement__covalent_radius_bragg": [137.0], "includesElement__electronegativity_allen": [10.96, 10.16], "includesElement__en_allen": [10.96, 10.16], "includesElement__metallic_radius": [118.0, 130.0], "includesElement__metallic_radius_c12": [128.0, 139.0], "includesElement__thermal_conductivity": [401.0, 71.6], "includesElement__vdw_radius_batsanov": [200.0, 205.0], "includesElement__c6": [253.0], "includesElement__gas_basicity": [632.4], "includesElement__proton_affinity": [655.3], "includesElement__discovery_year": [1735], "formula": ["Cu1Pt7"], "spacegroup": ["225"], "thermalConductivity": [2.28524], "icsd": ["108775"], "band_gap": [0.0], "density": [19.90498], "density_atomic": [14.90289], "deprecated": [false], "efermi": [7.266327], "energy_above_hull": [0.0], "energy_per_atom": [-46.5133], "formation_energy_per_atom": [-0.1056958], "homogeneous_poisson": [0.366], "is_gap_direct": [false], "is_magnetic": [false], "is_metal": [true], "is_stable": [true], "nelements": [2], "nsites": [8], "num_magnetic_sites": [0], "num_unique_magnetic_sites": [0], "theoretical": [false], "total_magnetization": [3.91e-05], "total_magnetization_normalized_formula_units": [3.91e-05], "total_magnetization_normalized_vol": [3.279566e-07], "uncorrected_energy_per_atom": [-46.5133], "universal_anisotropy": [0.188], "volume": [119.2231], "equilibrium_reaction_energy_per_atom": [-0.06007783]}