{"includesElement": ["", "Pd", "Te"], "includesElement___series_id": [8, 5], "includesElement__abundance_crust": [0.015, 0.001], "includesElement__atomic_number": [46, 52], "includesElement__atomic_radius": [140.0], "includesElement__atomic_radius_rahm": [215.0, 242.0], "includesElement__atomic_volume": [8.9, 20.5], "includesElement__atomic_weight": [106.42, 127.6], "includesElement__covalent_radius_cordero": [139.0, 138.0], "includesElement__covalent_radius_pyykko": [120.0, 136.0], "includesElement__covalent_radius_pyykko_double": [117.0, 128.0], "includesElement__covalent_radius_pyykko_triple": [112.0, 121.0], "includesElement__density": [12.0, 6.232], "includesElement__dipole_polarizability": [26.14, 38.0], "includesElement__dipole_polarizability_unc": [0.1, 4.0], "includesElement__discovery_year": [1803, 1782], "includesElement__electron_affinity": [0.562, 1.970876], "includesElement__electronegativity_allred-rochow": [0.0004756944, 0.0003757569], "includesElement__electronegativity_cottrell-sutton": [0.2389212, 0.2260596], "includesElement__electronegativity_ghosh": [0.1440276, 0.2056992], "includesElement__electronegativity_gordy": [0.05708333, 0.05110294], "includesElement__electronegativity_mulliken": [4.44943, 5.490268], "includesElement__electronegativity_nagle": [0.7259357, 0.5404919], "includesElement__electronegativity_pauling": [2.2, 2.1], "includesElement__electronegativity_sanderson": [1.124263, 0.8622506], "includesElement__en_ghosh": [0.1440276, 0.2056992], "includesElement__en_pauling": [2.2, 2.1], "includesElement__evaporation_heat": [372.4, 49.8], "includesElement__fusion_heat": [17.24, 17.91], "includesElement__glawe_number": [65, 94], "includesElement__group_id": [10, 16], "includesElement__heat_of_formation": [376.6, 196.6], "includesElement__is_radioactive": [false], "includesElement__lattice_constant": [3.89, 4.45], "includesElement__mendeleev_number": [68, 102], "includesElement__molar_heat_capacity": [25.98, 25.73], "includesElement__period": [5], "includesElement__pettifor_number": [69, 92], "includesElement__specific_heat_capacity": [0.246, 0.202], "includesElement__vdw_radius": [210.0, 206.0], "includesElement__vdw_radius_alvarez": [215.0, 199.0], "includesElement__vdw_radius_mm3": [237.0, 244.0], "includesElement__vdw_radius_uff": [289.9, 447.0], "includesElement__atomic_weight_uncertainty": [0.01, 0.03], "includesElement__c6_gb": [628.0, 471.0], "includesElement__electronegativity_allen": [9.402, 12.76], "includesElement__en_allen": [9.402, 12.76], "includesElement__metallic_radius": [128.0, 137.0], "includesElement__metallic_radius_c12": [137.0, 160.0], "includesElement__thermal_conductivity": [71.8, 14.3], "includesElement__vdw_radius_batsanov": [205.0, 210.0], "includesElement__gas_basicity": [673.4], "includesElement__proton_affinity": [696.0], "includesElement__covalent_radius_bragg": [133.0], "includesElement__c6": [445.0], "includesElement__vdw_radius_dreiding": [423.0], "includesElement__vdw_radius_bondi": [206.0], "formula": ["Pd6Te4"], "spacegroup": ["63"], "thermalConductivity": [0.866806], "icsd": ["649012"], "band_gap": [0.0], "density": [9.606002], "density_atomic": [19.86078], "deprecated": [false], "efermi": [6.700614], "energy_above_hull": [0.0], "energy_per_atom": [-24.28082], "formation_energy_per_atom": [-0.3376539], "homogeneous_poisson": [0.391], "is_gap_direct": [false], "is_magnetic": [false], "is_metal": [true], "is_stable": [true], "nelements": [2], "nsites": [10], "num_magnetic_sites": [0], "num_unique_magnetic_sites": [0], "theoretical": [false], "total_magnetization": [1e-07], "total_magnetization_normalized_formula_units": [5e-08], "total_magnetization_normalized_vol": [5.03505e-10], "uncorrected_energy_per_atom": [-24.28082], "universal_anisotropy": [0.146], "volume": [198.6078], "equilibrium_reaction_energy_per_atom": [-0.004281452]}