{"includesElement": ["Sb", "Al"], "includesElement___series_id": [5, 7], "includesElement__abundance_crust": [0.2, 82300.0], "includesElement__atomic_number": [51, 13], "includesElement__atomic_radius": [145.0, 125.0], "includesElement__atomic_radius_rahm": [246.0, 239.0], "includesElement__atomic_volume": [18.4, 10.0], "includesElement__atomic_weight": [121.76, 26.98154], "includesElement__covalent_radius_cordero": [139.0, 121.0], "includesElement__covalent_radius_pyykko": [140.0, 126.0], "includesElement__covalent_radius_pyykko_double": [133.0, 113.0], "includesElement__covalent_radius_pyykko_triple": [127.0, 111.0], "includesElement__density": [6.68, 2.7], "includesElement__dipole_polarizability": [43.0, 57.8], "includesElement__dipole_polarizability_unc": [2.0, 1.0], "includesElement__electron_affinity": [1.046, 0.43283], "includesElement__electronegativity_allred-rochow": [0.0003214286, 0.0002204586], "includesElement__electronegativity_cottrell-sutton": [0.212132, 0.1666667], "includesElement__electronegativity_ghosh": [0.1918774, 0.150078], "includesElement__electronegativity_gordy": [0.045, 0.02777778], "includesElement__electronegativity_mulliken": [4.827195, 3.209299], "includesElement__electronegativity_nagle": [0.4880907, 0.3730192], "includesElement__electronegativity_pauling": [2.05, 1.61], "includesElement__electronegativity_sanderson": [0.7762722, 0.2360927], "includesElement__en_ghosh": [0.1918774, 0.150078], "includesElement__en_pauling": [2.05, 1.61], "includesElement__evaporation_heat": [195.2, 284.1], "includesElement__fusion_heat": [20.08, 10.75], "includesElement__glawe_number": [91, 78], "includesElement__group_id": [15, 13], "includesElement__heat_of_formation": [264.4, 330.9], "includesElement__is_radioactive": [false], "includesElement__lattice_constant": [4.51, 4.05], "includesElement__mendeleev_number": [96, 82], "includesElement__molar_heat_capacity": [25.23, 24.2], "includesElement__period": [5, 3], "includesElement__pettifor_number": [88, 80], "includesElement__specific_heat_capacity": [0.207, 0.897], "includesElement__vdw_radius": [206.0, 184.0], "includesElement__vdw_radius_alvarez": [247.0, 225.0], "includesElement__vdw_radius_mm3": [252.0, 236.0], "includesElement__vdw_radius_uff": [442.0, 449.9], "includesElement__abundance_sea": [0.00024, 0.002], "includesElement__atomic_weight_uncertainty": [0.001, 7e-07], "includesElement__c6_gb": [504.0, 520.0], "includesElement__covalent_radius_bragg": [140.0, 135.0], "includesElement__electronegativity_allen": [11.74, 9.539], "includesElement__en_allen": [11.74, 9.539], "includesElement__metallic_radius": [139.0, 125.0], "includesElement__metallic_radius_c12": [166.0, 143.0], "includesElement__thermal_conductivity": [24.43, 237.0], "includesElement__vdw_radius_batsanov": [220.0, 210.0], "includesElement__c6": [492.0, 528.0], "includesElement__vdw_radius_dreiding": [435.0, 439.0], "includesElement__vdw_radius_truhlar": [206.0, 184.0], "includesElement__discovery_year": [1825], "includesElement__is_monoisotopic": [true], "formula": ["AlSb"], "mp_id": ["mp-1018100"], "spacegroup": ["186"], "thermalConductivity": [49.90352, 63.13482], "band_gap": [0.9179], "density": [4.178129], "density_atomic": [29.55763], "deprecated": [false], "efermi": [4.495311], "energy_above_hull": [0.008885223], "energy_per_atom": [-16.4633], "formation_energy_per_atom": [-0.2440903], "homogeneous_poisson": [0.256], "is_gap_direct": [true], "is_magnetic": [false], "is_metal": [false], "is_stable": [false], "nelements": [2], "nsites": [4], "num_magnetic_sites": [0], "num_unique_magnetic_sites": [0], "theoretical": [true], "total_magnetization": [0.0], "total_magnetization_normalized_formula_units": [0.0], "total_magnetization_normalized_vol": [0.0], "uncorrected_energy_per_atom": [-16.4633], "universal_anisotropy": [0.213], "volume": [118.2305], "cbm": [5.3802], "e_electronic": [11.52313], "e_ionic": [1.306436], "e_total": [12.82956], "n": [3.394573], "vbm": [4.4623], "e_ij_max": [0.1057416]}