{"includesElement": ["", "S", "Pd"], "includesElement___series_id": [1, 8], "includesElement__abundance_crust": [350.0, 0.015], "includesElement__atomic_number": [16, 46], "includesElement__atomic_radius": [100.0, 140.0], "includesElement__atomic_radius_rahm": [214.0, 215.0], "includesElement__atomic_volume": [15.5, 8.9], "includesElement__atomic_weight": [32.06, 106.42], "includesElement__covalent_radius_cordero": [105.0, 139.0], "includesElement__covalent_radius_pyykko": [103.0, 120.0], "includesElement__covalent_radius_pyykko_double": [94.0, 117.0], "includesElement__covalent_radius_pyykko_triple": [95.0, 112.0], "includesElement__density": [2.07, 12.0], "includesElement__dipole_polarizability": [19.4, 26.14], "includesElement__dipole_polarizability_unc": [0.1], "includesElement__electron_affinity": [2.077104, 0.562], "includesElement__electronegativity_allred-rochow": [0.0005137148, 0.0004756944], "includesElement__electronegativity_cottrell-sutton": [0.2300274, 0.2389212], "includesElement__electronegativity_ghosh": [0.23596, 0.1440276], "includesElement__electronegativity_gordy": [0.05291262, 0.05708333], "includesElement__electronegativity_mulliken": [6.218557, 4.44943], "includesElement__electronegativity_nagle": [0.6762644, 0.7259357], "includesElement__electronegativity_pauling": [2.58, 2.2], "includesElement__electronegativity_sanderson": [0.6397251, 1.124263], "includesElement__en_ghosh": [0.23596, 0.1440276], "includesElement__en_pauling": [2.58, 2.2], "includesElement__evaporation_heat": [10.5, 372.4], "includesElement__fusion_heat": [1.23, 17.24], "includesElement__glawe_number": [96, 65], "includesElement__group_id": [16, 10], "includesElement__heat_of_formation": [277.17, 376.6], "includesElement__is_radioactive": [false], "includesElement__lattice_constant": [10.47, 3.89], "includesElement__mendeleev_number": [100, 68], "includesElement__molar_heat_capacity": [22.7, 25.98], "includesElement__period": [3, 5], "includesElement__pettifor_number": [94, 69], "includesElement__specific_heat_capacity": [0.708, 0.246], "includesElement__vdw_radius": [180.0, 210.0], "includesElement__vdw_radius_alvarez": [189.0, 215.0], "includesElement__vdw_radius_mm3": [215.0, 237.0], "includesElement__vdw_radius_uff": [403.5, 289.9], "includesElement__abundance_sea": [905.0], "includesElement__c6_gb": [140.0, 628.0], "includesElement__covalent_radius_bragg": [102.0], "includesElement__electronegativity_allen": [15.31, 9.402], "includesElement__en_allen": [15.31, 9.402], "includesElement__metallic_radius": [104.0, 128.0], "includesElement__metallic_radius_c12": [127.0, 137.0], "includesElement__thermal_conductivity": [0.27, 71.8], "includesElement__vdw_radius_batsanov": [180.0, 205.0], "includesElement__c6": [134.0], "includesElement__vdw_radius_dreiding": [403.0], "includesElement__gas_basicity": [640.2, 673.4], "includesElement__proton_affinity": [664.3, 696.0], "includesElement__vdw_radius_bondi": [180.0], "includesElement__vdw_radius_rt": [181.0], "includesElement__discovery_year": [1803], "includesElement__atomic_weight_uncertainty": [0.01], "formula": ["Pd8S2"], "spacegroup": ["114"], "thermalConductivity": [1.22034], "icsd": ["23865"], "band_gap": [0.0], "density": [10.16585], "density_atomic": [14.95405], "deprecated": [false], "efermi": [4.924437], "energy_above_hull": [0.002573408], "energy_per_atom": [-20.18226], "formation_energy_per_atom": [-0.2068997], "is_gap_direct": [false], "is_magnetic": [false], "is_metal": [true], "is_stable": [false], "nelements": [2], "nsites": [10], "num_magnetic_sites": [0], "num_unique_magnetic_sites": [0], "theoretical": [false], "total_magnetization": [2e-07], "total_magnetization_normalized_formula_units": [1e-07], "total_magnetization_normalized_vol": [1.33743e-09], "uncorrected_energy_per_atom": [-20.18226], "volume": [149.5405]}