{"includesElement": ["", "Cl", "Sr"], "includesElement___series_id": [6, 4], "includesElement__abundance_crust": [145.0, 370.0], "includesElement__atomic_number": [17, 38], "includesElement__atomic_radius": [100.0, 200.0], "includesElement__atomic_radius_rahm": [206.0, 279.0], "includesElement__atomic_volume": [18.7, 33.7], "includesElement__atomic_weight": [35.45, 87.62], "includesElement__covalent_radius_cordero": [102.0, 195.0], "includesElement__covalent_radius_pyykko": [99.0, 185.0], "includesElement__covalent_radius_pyykko_double": [95.0, 157.0], "includesElement__covalent_radius_pyykko_triple": [93.0, 139.0], "includesElement__density": [0.002898, 2.64], "includesElement__dipole_polarizability": [14.6, 197.2], "includesElement__dipole_polarizability_unc": [0.1, 0.2], "includesElement__discovery_year": [1774, 1790], "includesElement__electron_affinity": [3.612725, 0.048], "includesElement__electronegativity_allred-rochow": [0.0006223855, 8.327246e-05], "includesElement__electronegativity_cottrell-sutton": [0.248226, 0.1241185], "includesElement__electronegativity_ghosh": [0.263803, 0.1185082], "includesElement__electronegativity_gordy": [0.06161616, 0.01540541], "includesElement__electronegativity_mulliken": [8.290178, 2.871434], "includesElement__electronegativity_nagle": [0.7826755, 0.2164584], "includesElement__electronegativity_pauling": [3.16, 0.95], "includesElement__electronegativity_sanderson": [0.8123773, 0.2631786], "includesElement__en_ghosh": [0.263803, 0.1185082], "includesElement__en_pauling": [3.16, 0.95], "includesElement__evaporation_heat": [20.41, 144.0], "includesElement__fusion_heat": [6.41, 9.2], "includesElement__glawe_number": [101, 15], "includesElement__group_id": [17, 2], "includesElement__heat_of_formation": [121.302, 164.0], "includesElement__is_radioactive": [false], "includesElement__lattice_constant": [6.24, 6.08], "includesElement__mendeleev_number": [107, 8], "includesElement__molar_heat_capacity": [33.949, 26.79], "includesElement__period": [3, 5], "includesElement__pettifor_number": [99, 15], "includesElement__specific_heat_capacity": [0.479, 0.306], "includesElement__vdw_radius": [175.0, 249.0], "includesElement__vdw_radius_alvarez": [182.0, 284.0], "includesElement__vdw_radius_mm3": [207.0, 300.0], "includesElement__vdw_radius_uff": [394.7, 364.1], "includesElement__abundance_sea": [19400.0, 7.9], "includesElement__c6_gb": [97.1, 3230.0], "includesElement__covalent_radius_bragg": [105.0, 195.0], "includesElement__electronegativity_allen": [16.97, 5.695], "includesElement__en_allen": [16.97, 5.695], "includesElement__metallic_radius_c12": [91.0, 215.0], "includesElement__thermal_conductivity": [0.009], "includesElement__vdw_radius_batsanov": [180.0, 255.0], "includesElement__c6": [94.6, 3175.0], "includesElement__vdw_radius_dreiding": [395.03], "includesElement__gas_basicity": [490.1], "includesElement__proton_affinity": [513.6], "includesElement__vdw_radius_bondi": [175.0], "includesElement__vdw_radius_rt": [176.0], "includesElement__atomic_weight_uncertainty": [0.01], "includesElement__metallic_radius": [191.0], "includesElement__vdw_radius_truhlar": [249.0], "formula": ["Cl2Sr1"], "spacegroup": ["225"], "thermalConductivity": [2.00874], "icsd": ["18011"], "band_gap": [5.2286], "density": [3.070503], "density_atomic": [28.57714], "deprecated": [false], "efermi": [0.07819131], "energy_above_hull": [0.0], "energy_per_atom": [-11.90027], "formation_energy_per_atom": [-2.750093], "homogeneous_poisson": [0.31], "is_gap_direct": [false], "is_magnetic": [false], "is_metal": [false], "is_stable": [true], "nelements": [2], "nsites": [3], "num_magnetic_sites": [0], "num_unique_magnetic_sites": [0], "theoretical": [false], "total_magnetization": [0.0], "total_magnetization_normalized_formula_units": [0.0], "total_magnetization_normalized_vol": [0.0], "uncorrected_energy_per_atom": [-11.90027], "universal_anisotropy": [0.97], "volume": [85.73143], "cbm": [5.1886], "e_electronic": [2.879445], "e_ionic": [5.597663], "e_total": [8.477108], "equilibrium_reaction_energy_per_atom": [-2.750093], "n": [1.696893], "vbm": [-0.04]}