{"includesElement": ["", "Al", "O", "Y"], "includesElement___series_id": [7, 1, 8], "includesElement__abundance_crust": [82300.0, 461000.0, 33.0], "includesElement__atomic_number": [13, 8, 39], "includesElement__atomic_radius": [125.0, 60.0, 180.0], "includesElement__atomic_radius_rahm": [239.0, 171.0, 274.0], "includesElement__atomic_volume": [10.0, 14.0, 19.8], "includesElement__atomic_weight": [26.98154, 15.999, 88.90584], "includesElement__covalent_radius_cordero": [121.0, 66.0, 190.0], "includesElement__covalent_radius_pyykko": [126.0, 63.0, 163.0], "includesElement__covalent_radius_pyykko_double": [113.0, 57.0, 130.0], "includesElement__covalent_radius_pyykko_triple": [111.0, 53.0, 124.0], "includesElement__density": [2.7, 0.001308, 4.47], "includesElement__dipole_polarizability": [57.8, 5.3, 162.0], "includesElement__dipole_polarizability_unc": [1.0, 0.2, 12.0], "includesElement__discovery_year": [1825, 1774, 1789], "includesElement__electron_affinity": [0.43283, 1.461113, 0.307], "includesElement__electronegativity_allred-rochow": [0.0002204586, 0.001146384, 0.0001129135], "includesElement__electronegativity_cottrell-sutton": [0.1666667, 0.2687419, 0.1356647], "includesElement__electronegativity_ghosh": [0.150078, 0.304575, 0.1216986], "includesElement__electronegativity_gordy": [0.02777778, 0.07222222, 0.01840491], "includesElement__electronegativity_mulliken": [3.209299, 7.539584, 3.26213], "includesElement__electronegativity_nagle": [0.3730192, 1.042218, 0.2645668], "includesElement__electronegativity_pauling": [1.61, 3.44, 1.22], "includesElement__electronegativity_sanderson": [0.2360927, 0.9416494, 0.3923941], "includesElement__en_ghosh": [0.150078, 0.304575, 0.1216986], "includesElement__en_pauling": [1.61, 3.44, 1.22], "includesElement__evaporation_heat": [284.1, 367.0], "includesElement__fusion_heat": [10.75, 11.5], "includesElement__glawe_number": [78, 97, 21], "includesElement__group_id": [13, 16, 3], "includesElement__heat_of_formation": [330.9, 249.229, 424.7], "includesElement__is_radioactive": [false], "includesElement__lattice_constant": [4.05, 6.83, 3.65], "includesElement__mendeleev_number": [82, 99, 12], "includesElement__molar_heat_capacity": [24.2, 29.378, 26.53], "includesElement__period": [3, 2, 5], "includesElement__pettifor_number": [80, 101, 19], "includesElement__specific_heat_capacity": [0.897, 0.918, 0.298], "includesElement__vdw_radius": [184.0, 152.0, 232.0], "includesElement__vdw_radius_alvarez": [225.0, 150.0, 275.0], "includesElement__vdw_radius_mm3": [236.0, 182.0, 271.0], "includesElement__vdw_radius_uff": [449.9, 350.0, 334.5], "includesElement__abundance_sea": [0.002, 857000.0, 1.3e-05], "includesElement__atomic_weight_uncertainty": [7e-07, 2e-05], "includesElement__c6_gb": [520.0, 16.7, 2600.0], "includesElement__covalent_radius_bragg": [135.0, 65.0], "includesElement__electronegativity_allen": [9.539, 21.36, 6.631], "includesElement__en_allen": [9.539, 21.36, 6.631], "includesElement__metallic_radius": [125.0, 162.0], "includesElement__metallic_radius_c12": [143.0, 180.0], "includesElement__thermal_conductivity": [237.0, 0.027], "includesElement__vdw_radius_batsanov": [210.0, 155.0, 240.0], "includesElement__c6": [528.0, 15.6], "includesElement__is_monoisotopic": [true], "includesElement__vdw_radius_dreiding": [439.0, 340.46], "includesElement__vdw_radius_truhlar": [184.0], "includesElement__gas_basicity": [459.6, 945.9], "includesElement__proton_affinity": [485.2, 967.0], "includesElement__vdw_radius_bondi": [152.0], "includesElement__vdw_radius_rt": [158.0], "formula": ["Al4O12Y4"], "spacegroup": ["62"], "thermalConductivity": [8.78906], "icsd": ["167509"], "band_gap": [5.5402], "density": [5.364666], "density_atomic": [10.14559], "deprecated": [false], "efermi": [4.504169], "energy_above_hull": [0.01883584], "energy_per_atom": [-8.731948], "formation_energy_per_atom": [-3.709656], "homogeneous_poisson": [0.254], "is_gap_direct": [false], "is_magnetic": [false], "is_metal": [false], "is_stable": [false], "nelements": [3], "nsites": [20], "num_magnetic_sites": [0], "num_unique_magnetic_sites": [0], "theoretical": [false], "total_magnetization": [0.0], "total_magnetization_normalized_formula_units": [0.0], "total_magnetization_normalized_vol": [0.0], "uncorrected_energy_per_atom": [-12.66846], "universal_anisotropy": [0.24], "volume": [202.9117], "cbm": [9.9926], "e_electronic": [4.130627], "e_ionic": [11.81849], "e_total": [15.94911], "n": [2.032394], "vbm": [4.4524]}