{"includesElement": ["", "Zr", "H"], "includesElement___series_id": [8, 1], "includesElement__abundance_crust": [165.0, 1400.0], "includesElement__atomic_number": [40, 1], "includesElement__atomic_radius": [155.0, 25.0], "includesElement__atomic_radius_rahm": [269.0, 154.0], "includesElement__atomic_volume": [14.1], "includesElement__atomic_weight": [91.224, 1.008], "includesElement__covalent_radius_cordero": [175.0, 31.0], "includesElement__covalent_radius_pyykko": [154.0, 32.0], "includesElement__covalent_radius_pyykko_double": [127.0], "includesElement__covalent_radius_pyykko_triple": [121.0], "includesElement__density": [6.52, 8.2e-05], "includesElement__dipole_polarizability": [112.0, 4.50711], "includesElement__dipole_polarizability_unc": [13.0, 3e-05], "includesElement__discovery_year": [1789, 1766], "includesElement__electron_affinity": [0.426, 0.754195], "includesElement__electronegativity_allred-rochow": [0.0001328217, 0.0009765625], "includesElement__electronegativity_cottrell-sutton": [0.1430194, 0.1767767], "includesElement__electronegativity_ghosh": [0.1248887, 0.2638], "includesElement__electronegativity_gordy": [0.02045455, 0.03125], "includesElement__electronegativity_mulliken": [3.52995, 7.176315], "includesElement__electronegativity_nagle": [0.3293169, 0.6053882], "includesElement__electronegativity_pauling": [1.33, 2.2], "includesElement__electronegativity_sanderson": [0.4744467, 2.187771], "includesElement__en_ghosh": [0.1248887, 0.2638], "includesElement__en_pauling": [1.33, 2.2], "includesElement__evaporation_heat": [567.0, 0.904], "includesElement__fusion_heat": [19.2, 0.117], "includesElement__glawe_number": [49, 103], "includesElement__group_id": [4, 1], "includesElement__heat_of_formation": [610.0, 217.998], "includesElement__is_radioactive": [false], "includesElement__lattice_constant": [3.23, 3.75], "includesElement__mendeleev_number": [44, 105], "includesElement__molar_heat_capacity": [25.36, 28.836], "includesElement__period": [5, 1], "includesElement__pettifor_number": [49, 103], "includesElement__specific_heat_capacity": [0.278, 14.304], "includesElement__vdw_radius": [223.0, 110.0], "includesElement__vdw_radius_alvarez": [252.0, 120.0], "includesElement__vdw_radius_mm3": [254.0, 162.0], "includesElement__vdw_radius_uff": [312.4, 288.6], "includesElement__abundance_sea": [3e-05, 108000.0], "includesElement__atomic_weight_uncertainty": [0.002], "includesElement__c6_gb": [1360.0, 6.51], "includesElement__electronegativity_allen": [7.808, 13.61], "includesElement__en_allen": [7.808, 13.61], "includesElement__metallic_radius": [145.0], "includesElement__metallic_radius_c12": [160.0, 78.0], "includesElement__thermal_conductivity": [22.7, 0.1815], "includesElement__vdw_radius_batsanov": [230.0], "includesElement__c6": [6.499027], "includesElement__vdw_radius_dreiding": [319.5], "includesElement__vdw_radius_bondi": [120.0], "includesElement__vdw_radius_rt": [110.0], "formula": ["H2Zr1"], "spacegroup": ["139"], "thermalConductivity": [3.53136], "icsd": ["108539"], "band_gap": [0.0], "density": [5.637323], "density_atomic": [9.154964], "deprecated": [false], "efermi": [4.507849], "energy_above_hull": [0.0], "energy_per_atom": [-10.52354], "formation_energy_per_atom": [-0.6368645], "homogeneous_poisson": [0.39], "is_gap_direct": [false], "is_magnetic": [false], "is_metal": [true], "is_stable": [true], "nelements": [2], "nsites": [3], "num_magnetic_sites": [0], "num_unique_magnetic_sites": [0], "theoretical": [false], "total_magnetization": [1e-07], "total_magnetization_normalized_formula_units": [1e-07], "total_magnetization_normalized_vol": [3.641012e-09], "uncorrected_energy_per_atom": [-10.52354], "universal_anisotropy": [1.546], "volume": [27.46489], "equilibrium_reaction_energy_per_atom": [-0.3091786]}