{"includesElement": ["", "Dy", "C"], "includesElement___series_id": [9, 1], "includesElement__abundance_crust": [5.2, 200.0], "includesElement__atomic_number": [66, 6], "includesElement__atomic_radius": [175.0, 70.0], "includesElement__atomic_radius_rahm": [275.0, 190.0], "includesElement__atomic_volume": [19.0, 5.3], "includesElement__atomic_weight": [162.5, 12.011], "includesElement__covalent_radius_cordero": [192.0, 73.0], "includesElement__covalent_radius_pyykko": [167.0, 75.0], "includesElement__covalent_radius_pyykko_double": [133.0, 67.0], "includesElement__density": [8.55, 2.2], "includesElement__dipole_polarizability": [163.0, 11.3], "includesElement__dipole_polarizability_unc": [15.0, 0.2], "includesElement__discovery_year": [1886], "includesElement__electron_affinity": [0.352, 1.262119], "includesElement__electronegativity_allred-rochow": [0.0001021908, 0.0005777778], "includesElement__electronegativity_cottrell-sutton": [0.1306364, 0.2081666], "includesElement__electronegativity_ghosh": [0.20333, 0.224776], "includesElement__electronegativity_gordy": [0.01706587, 0.04333333], "includesElement__electronegativity_mulliken": [3.145525, 6.261208], "includesElement__electronegativity_nagle": [0.4191131, 0.7073926], "includesElement__electronegativity_pauling": [1.22, 2.55], "includesElement__electronegativity_sanderson": [0.5297338, 0.427525], "includesElement__en_ghosh": [0.20333, 0.224776], "includesElement__en_pauling": [1.22, 2.55], "includesElement__evaporation_heat": [291.0], "includesElement__glawe_number": [24, 87], "includesElement__heat_of_formation": [290.4, 716.87], "includesElement__is_radioactive": [false], "includesElement__lattice_constant": [3.59, 3.57], "includesElement__mendeleev_number": [31, 87], "includesElement__molar_heat_capacity": [28.16, 8.517], "includesElement__period": [6, 2], "includesElement__pettifor_number": [25, 95], "includesElement__specific_heat_capacity": [0.173, 0.709], "includesElement__vdw_radius": [231.0, 170.0], "includesElement__vdw_radius_alvarez": [287.0, 177.0], "includesElement__vdw_radius_mm3": [290.0, 204.0], "includesElement__vdw_radius_uff": [342.8, 385.1], "includesElement__abundance_sea": [9.1e-07, 28.0], "includesElement__atomic_weight_uncertainty": [0.001], "includesElement__c6_gb": [2430.0, 47.9], "includesElement__thermal_conductivity": [10.7, 1.59], "includesElement__covalent_radius_pyykko_triple": [60.0], "includesElement__group_id": [14], "includesElement__covalent_radius_bragg": [77.0], "includesElement__electronegativity_allen": [15.05], "includesElement__en_allen": [15.05], "includesElement__metallic_radius_c12": [86.0], "includesElement__vdw_radius_batsanov": [170.0], "includesElement__c6": [46.6], "includesElement__vdw_radius_dreiding": [389.83], "includesElement__vdw_radius_bondi": [170.0], "includesElement__vdw_radius_rt": [177.0], "formula": ["C2Dy1"], "spacegroup": ["139"], "thermalConductivity": [10.3954], "icsd": ["42896"], "band_gap": [0.0], "density": [7.481781], "density_atomic": [13.79912], "deprecated": [false], "efermi": [4.400157], "energy_above_hull": [0.05472947], "energy_per_atom": [-7.879522], "formation_energy_per_atom": [-0.1876201], "homogeneous_poisson": [0.343], "is_gap_direct": [false], "is_magnetic": [false], "is_metal": [true], "is_stable": [false], "nelements": [2], "nsites": [3], "num_magnetic_sites": [0], "num_unique_magnetic_sites": [0], "theoretical": [false], "total_magnetization": [0.0], "total_magnetization_normalized_formula_units": [0.0], "total_magnetization_normalized_vol": [0.0], "uncorrected_energy_per_atom": [-17.66211], "universal_anisotropy": [15.994], "volume": [41.39737]}