{"includesElement": ["", "Ho", "B"], "includesElement___series_id": [9, 5], "includesElement__abundance_crust": [1.3, 10.0], "includesElement__atomic_number": [67, 5], "includesElement__atomic_radius": [175.0, 85.0], "includesElement__atomic_radius_rahm": [273.0, 205.0], "includesElement__atomic_volume": [18.7, 4.6], "includesElement__atomic_weight": [164.9303, 10.81], "includesElement__covalent_radius_cordero": [192.0, 84.0], "includesElement__covalent_radius_pyykko": [166.0, 85.0], "includesElement__covalent_radius_pyykko_double": [133.0, 78.0], "includesElement__density": [8.8, 2.34], "includesElement__dipole_polarizability": [156.0, 20.5], "includesElement__dipole_polarizability_unc": [10.0, 0.1], "includesElement__discovery_year": [1878, 1808], "includesElement__electronegativity_allred-rochow": [0.0001034258, 0.0003598616], "includesElement__electronegativity_cottrell-sutton": [0.1310293, 0.1748949], "includesElement__electronegativity_ghosh": [0.207795, 0.184886], "includesElement__electronegativity_gordy": [0.01716867, 0.03058824], "includesElement__electronegativity_mulliken": [3.01075, 4.288871], "includesElement__electronegativity_nagle": [0.4367902, 0.5269739], "includesElement__electronegativity_pauling": [1.23, 2.04], "includesElement__electronegativity_sanderson": [0.5434919, 0.2546274], "includesElement__en_ghosh": [0.207795, 0.184886], "includesElement__en_pauling": [1.23, 2.04], "includesElement__evaporation_heat": [301.0, 504.5], "includesElement__glawe_number": [23, 86], "includesElement__heat_of_formation": [300.6, 565.0], "includesElement__is_radioactive": [false], "includesElement__lattice_constant": [3.58, 8.73], "includesElement__mendeleev_number": [33, 81], "includesElement__molar_heat_capacity": [27.15, 11.087], "includesElement__period": [6, 2], "includesElement__pettifor_number": [24, 86], "includesElement__specific_heat_capacity": [0.165, 1.026], "includesElement__vdw_radius": [230.0, 192.0], "includesElement__vdw_radius_alvarez": [281.0, 191.0], "includesElement__vdw_radius_mm3": [267.0, 215.0], "includesElement__vdw_radius_uff": [340.9, 408.3], "includesElement__abundance_sea": [2.2e-07, 4.44], "includesElement__atomic_weight_uncertainty": [2e-05], "includesElement__c6_gb": [2280.0, 99.2], "includesElement__is_monoisotopic": [true], "includesElement__covalent_radius_pyykko_triple": [73.0], "includesElement__electron_affinity": [0.279723], "includesElement__fusion_heat": [23.6], "includesElement__group_id": [13], "includesElement__electronegativity_allen": [12.13], "includesElement__en_allen": [12.13], "includesElement__metallic_radius": [80.0], "includesElement__metallic_radius_c12": [98.0], "includesElement__thermal_conductivity": [27.4], "includesElement__vdw_radius_batsanov": [180.0], "includesElement__c6": [99.5], "includesElement__vdw_radius_dreiding": [402.0], "includesElement__vdw_radius_truhlar": [192.0], "formula": ["B6Ho1"], "spacegroup": ["221"], "thermalConductivity": [11.2188], "icsd": ["150624"], "band_gap": [0.0], "density": [5.621496], "density_atomic": [9.697107], "deprecated": [false], "efermi": [6.903478], "energy_above_hull": [0.03738277], "energy_per_atom": [-11.43378], "formation_energy_per_atom": [-0.439572], "homogeneous_poisson": [0.299], "is_gap_direct": [false], "is_magnetic": [false], "is_metal": [true], "is_stable": [false], "nelements": [2], "nsites": [7], "num_magnetic_sites": [0], "num_unique_magnetic_sites": [0], "theoretical": [false], "total_magnetization": [0.0], "total_magnetization_normalized_formula_units": [0.0], "total_magnetization_normalized_vol": [0.0], "uncorrected_energy_per_atom": [-11.43378], "universal_anisotropy": [5.85], "volume": [67.87975]}