{"includesElement": ["", "Os"], "includesElement___series_id": [8], "includesElement__abundance_crust": [0.0015], "includesElement__atomic_number": [76], "includesElement__atomic_radius": [130.0], "includesElement__atomic_radius_rahm": [244.0], "includesElement__atomic_volume": [8.43], "includesElement__atomic_weight": [190.23], "includesElement__covalent_radius_cordero": [144.0], "includesElement__covalent_radius_pyykko": [129.0], "includesElement__covalent_radius_pyykko_double": [116.0], "includesElement__covalent_radius_pyykko_triple": [109.0], "includesElement__density": [22.5872], "includesElement__dipole_polarizability": [57.0], "includesElement__dipole_polarizability_unc": [3.0], "includesElement__discovery_year": [1804], "includesElement__electron_affinity": [1.1], "includesElement__electronegativity_allred-rochow": [0.000225347], "includesElement__electronegativity_cottrell-sutton": [0.1704986], "includesElement__electronegativity_ghosh": [0.2479845], "includesElement__electronegativity_gordy": [0.02906977], "includesElement__electronegativity_mulliken": [4.769115], "includesElement__electronegativity_nagle": [0.5196828], "includesElement__electronegativity_pauling": [2.2], "includesElement__electronegativity_sanderson": [1.239276], "includesElement__en_ghosh": [0.2479845], "includesElement__en_pauling": [2.2], "includesElement__evaporation_heat": [738.0], "includesElement__fusion_heat": [31.7], "includesElement__glawe_number": [60], "includesElement__group_id": [8], "includesElement__heat_of_formation": [787.0], "includesElement__is_radioactive": [false], "includesElement__lattice_constant": [2.74], "includesElement__mendeleev_number": [61], "includesElement__molar_heat_capacity": [24.7], "includesElement__period": [6], "includesElement__pettifor_number": [62], "includesElement__specific_heat_capacity": [0.13], "includesElement__vdw_radius": [216.0], "includesElement__vdw_radius_alvarez": [248.0], "includesElement__vdw_radius_mm3": [235.0], "includesElement__vdw_radius_uff": [312.0], "includesElement__atomic_weight_uncertainty": [0.03], "includesElement__c6_gb": [584.0], "includesElement__electronegativity_allen": [9.78], "includesElement__en_allen": [9.78], "includesElement__metallic_radius": [126.0], "includesElement__metallic_radius_c12": [135.0], "includesElement__vdw_radius_batsanov": [200.0], "formula": ["Os2"], "spacegroup": ["194"], "thermalConductivity": [50.7919], "icsd": ["169092"], "band_gap": [0.0], "density": [22.35969], "density_atomic": [14.1274], "deprecated": [false], "efermi": [8.56779], "energy_above_hull": [0.0], "energy_per_atom": [-52.98523], "formation_energy_per_atom": [0.0], "has_reconstructed": [false], "homogeneous_poisson": [0.246], "is_gap_direct": [false], "is_magnetic": [false], "is_metal": [true], "is_stable": [true], "nelements": [1], "nsites": [2], "num_magnetic_sites": [0], "num_unique_magnetic_sites": [0], "shape_factor": [5.093788], "surface_anisotropy": [0.06669849], "theoretical": [false], "total_magnetization": [1e-07], "total_magnetization_normalized_formula_units": [5e-08], "total_magnetization_normalized_vol": [3.539222e-09], "uncorrected_energy_per_atom": [-52.98523], "universal_anisotropy": [0.023], "volume": [28.2548], "weighted_surface_energy": [3.383744], "weighted_surface_energy_EV_PER_ANG2": [0.2111967], "weighted_work_function": [4.783738], "equilibrium_reaction_energy_per_atom": [0.0]}