{"includesElement": ["", "Pb", "Tb"], "includesElement___series_id": [7, 9], "includesElement__abundance_crust": [14.0, 1.2], "includesElement__atomic_number": [82, 65], "includesElement__atomic_radius": [180.0, 175.0], "includesElement__atomic_radius_rahm": [249.0, 276.0], "includesElement__atomic_volume": [18.3, 19.2], "includesElement__atomic_weight": [207.2, 158.9254], "includesElement__covalent_radius_cordero": [146.0, 194.0], "includesElement__covalent_radius_pyykko": [144.0, 168.0], "includesElement__covalent_radius_pyykko_double": [135.0], "includesElement__covalent_radius_pyykko_triple": [137.0], "includesElement__density": [11.3, 8.23], "includesElement__dipole_polarizability": [47.0, 170.0], "includesElement__dipole_polarizability_unc": [3.0, 20.0], "includesElement__electron_affinity": [0.3567432, 1.165], "includesElement__electronegativity_allred-rochow": [0.000272473, 0.0001009779], "includesElement__electronegativity_cottrell-sutton": [0.1980811, 0.130247], "includesElement__electronegativity_ghosh": [0.177911, 0.198863], "includesElement__electronegativity_gordy": [0.03923611, 0.01696429], "includesElement__electronegativity_mulliken": [3.886711, 3.5144], "includesElement__electronegativity_nagle": [0.4398663, 0.4014652], "includesElement__electronegativity_pauling": [1.8], "includesElement__electronegativity_sanderson": [0.9313226, 0.5163695], "includesElement__en_ghosh": [0.177911, 0.198863], "includesElement__en_pauling": [1.8], "includesElement__evaporation_heat": [177.8, 389.0], "includesElement__fusion_heat": [4.77], "includesElement__glawe_number": [82, 25], "includesElement__group_id": [14], "includesElement__heat_of_formation": [195.2, 388.7], "includesElement__is_radioactive": [false], "includesElement__lattice_constant": [4.95, 3.6], "includesElement__mendeleev_number": [91, 29], "includesElement__molar_heat_capacity": [26.84, 28.91], "includesElement__period": [6], "includesElement__pettifor_number": [82, 26], "includesElement__specific_heat_capacity": [0.13, 0.182], "includesElement__vdw_radius": [202.0, 233.0], "includesElement__vdw_radius_alvarez": [260.0, 279.0], "includesElement__vdw_radius_mm3": [274.0, 270.0], "includesElement__vdw_radius_uff": [429.7, 345.1], "includesElement__abundance_sea": [3e-05, 1.4e-07], "includesElement__atomic_weight_uncertainty": [0.1, 2e-05], "includesElement__c6_gb": [534.0, 2590.0], "includesElement__electronegativity_allen": [10.97], "includesElement__en_allen": [10.97], "includesElement__metallic_radius": [150.0], "includesElement__metallic_radius_c12": [170.0], "includesElement__thermal_conductivity": [35.3, 11.1], "includesElement__vdw_radius_batsanov": [230.0], "includesElement__vdw_radius_bondi": [202.0], "includesElement__discovery_year": [1843], "includesElement__is_monoisotopic": [true], "formula": ["Pb3Tb1"], "spacegroup": ["221"], "thermalConductivity": [0.468345], "icsd": ["105629"], "band_gap": [0.0], "density": [11.32704], "density_atomic": [28.60616], "deprecated": [false], "efermi": [7.094896], "energy_above_hull": [0.0], "energy_per_atom": [-4.240403], "formation_energy_per_atom": [-0.2964519], "is_gap_direct": [false], "is_magnetic": [false], "is_metal": [true], "is_stable": [true], "nelements": [2], "nsites": [4], "num_magnetic_sites": [0], "num_unique_magnetic_sites": [0], "theoretical": [false], "total_magnetization": [1.94e-05], "total_magnetization_normalized_formula_units": [1.94e-05], "total_magnetization_normalized_vol": [1.695439e-07], "uncorrected_energy_per_atom": [-50.39817], "volume": [114.4246], "equilibrium_reaction_energy_per_atom": [-0.05346799]}