{"includesElement": ["", "Ca", "P"], "includesElement___series_id": [4, 1], "includesElement__abundance_crust": [41500.0, 1050.0], "includesElement__atomic_number": [20, 15], "includesElement__atomic_radius": [180.0, 100.0], "includesElement__atomic_radius_rahm": [270.0, 223.0], "includesElement__atomic_volume": [29.9, 17.0], "includesElement__atomic_weight": [40.078, 30.97376], "includesElement__covalent_radius_cordero": [176.0, 107.0], "includesElement__covalent_radius_pyykko": [171.0, 111.0], "includesElement__covalent_radius_pyykko_double": [147.0, 102.0], "includesElement__covalent_radius_pyykko_triple": [133.0, 94.0], "includesElement__density": [1.54, 1.823], "includesElement__dipole_polarizability": [160.8, 25.0], "includesElement__dipole_polarizability_unc": [4.0, 1.0], "includesElement__discovery_year": [1808, 1669], "includesElement__electron_affinity": [0.02455, 0.746607], "includesElement__electronegativity_allred-rochow": [9.746589e-05, 0.0003895788], "includesElement__electronegativity_cottrell-sutton": [0.1290994, 0.2079501], "includesElement__electronegativity_ghosh": [0.1154119, 0.206931], "includesElement__electronegativity_gordy": [0.01666667, 0.04324324], "includesElement__electronegativity_mulliken": [3.068853, 5.616646], "includesElement__electronegativity_nagle": [0.2316939, 0.5848035], "includesElement__electronegativity_pauling": [1.0, 2.19], "includesElement__electronegativity_sanderson": [0.1901577, 0.4510269], "includesElement__en_ghosh": [0.1154119, 0.206931], "includesElement__en_pauling": [1.0, 2.19], "includesElement__evaporation_heat": [153.6, 49.8], "includesElement__fusion_heat": [9.2, 2.51], "includesElement__glawe_number": [16, 89], "includesElement__group_id": [2, 15], "includesElement__heat_of_formation": [177.8, 316.5], "includesElement__is_radioactive": [false], "includesElement__lattice_constant": [5.58, 7.17], "includesElement__mendeleev_number": [7, 94], "includesElement__molar_heat_capacity": [25.929, 23.824], "includesElement__period": [4, 3], "includesElement__pettifor_number": [16, 90], "includesElement__specific_heat_capacity": [0.647, 0.769], "includesElement__vdw_radius": [231.0, 180.0], "includesElement__vdw_radius_alvarez": [262.0, 190.0], "includesElement__vdw_radius_mm3": [281.0, 222.0], "includesElement__vdw_radius_uff": [339.9, 414.7], "includesElement__abundance_sea": [412.0, 0.06], "includesElement__atomic_weight_uncertainty": [0.004, 5e-09], "includesElement__c6_gb": [2230.0, 187.0], "includesElement__covalent_radius_bragg": [170.0], "includesElement__electronegativity_allen": [6.113, 13.33], "includesElement__en_allen": [6.113, 13.33], "includesElement__metallic_radius": [174.0, 110.0], "includesElement__metallic_radius_c12": [197.0, 128.0], "includesElement__vdw_radius_batsanov": [240.0, 195.0], "includesElement__c6": [2163.0, 185.0], "includesElement__vdw_radius_truhlar": [231.0], "includesElement__is_monoisotopic": [true], "includesElement__vdw_radius_dreiding": [415.0], "includesElement__gas_basicity": [604.8], "includesElement__proton_affinity": [626.8], "includesElement__vdw_radius_bondi": [180.0], "formula": ["Ca6P6"], "spacegroup": ["189"], "thermalConductivity": [4.2295], "icsd": ["26261"], "band_gap": [0.3443], "density": [2.43895], "density_atomic": [24.1875], "deprecated": [false], "efermi": [4.231221], "energy_above_hull": [0.0], "energy_per_atom": [-9.276643], "formation_energy_per_atom": [-1.256458], "homogeneous_poisson": [0.238], "is_gap_direct": [false], "is_magnetic": [false], "is_metal": [false], "is_stable": [true], "nelements": [2], "nsites": [12], "num_magnetic_sites": [0], "num_unique_magnetic_sites": [0], "theoretical": [false], "total_magnetization": [0.0], "total_magnetization_normalized_formula_units": [0.0], "total_magnetization_normalized_vol": [0.0], "uncorrected_energy_per_atom": [-9.276643], "universal_anisotropy": [0.041], "volume": [290.2501], "cbm": [4.5101], "e_electronic": [8.198183], "e_ionic": [5.012114], "e_total": [13.2103], "equilibrium_reaction_energy_per_atom": [-0.3973764], "n": [2.863247], "vbm": [4.1658], "e_ij_max": [0.137062]}