{"includesElement": ["", "Mg", "B"], "includesElement___series_id": [4, 5], "includesElement__abundance_crust": [23300.0, 10.0], "includesElement__atomic_number": [12, 5], "includesElement__atomic_radius": [150.0, 85.0], "includesElement__atomic_radius_rahm": [240.0, 205.0], "includesElement__atomic_volume": [14.0, 4.6], "includesElement__atomic_weight": [24.305, 10.81], "includesElement__covalent_radius_cordero": [141.0, 84.0], "includesElement__covalent_radius_pyykko": [139.0, 85.0], "includesElement__covalent_radius_pyykko_double": [132.0, 78.0], "includesElement__covalent_radius_pyykko_triple": [127.0, 73.0], "includesElement__density": [1.74, 2.34], "includesElement__dipole_polarizability": [71.2, 20.5], "includesElement__dipole_polarizability_unc": [0.4, 0.1], "includesElement__discovery_year": [1808], "includesElement__electronegativity_allred-rochow": [0.0001475079, 0.0003598616], "includesElement__electronegativity_cottrell-sutton": [0.1431908, 0.1748949], "includesElement__electronegativity_ghosh": [0.121644, 0.184886], "includesElement__electronegativity_gordy": [0.0205036, 0.03058824], "includesElement__electronegativity_mulliken": [3.823117, 4.288871], "includesElement__electronegativity_nagle": [0.3039835, 0.5269739], "includesElement__electronegativity_pauling": [1.31, 2.04], "includesElement__electronegativity_sanderson": [0.1524211, 0.2546274], "includesElement__en_ghosh": [0.121644, 0.184886], "includesElement__en_pauling": [1.31, 2.04], "includesElement__evaporation_heat": [131.8, 504.5], "includesElement__fusion_heat": [9.2, 23.6], "includesElement__glawe_number": [73, 86], "includesElement__group_id": [2, 13], "includesElement__heat_of_formation": [147.1, 565.0], "includesElement__is_radioactive": [false], "includesElement__lattice_constant": [3.21, 8.73], "includesElement__mendeleev_number": [76, 81], "includesElement__molar_heat_capacity": [24.869, 11.087], "includesElement__period": [3, 2], "includesElement__pettifor_number": [73, 86], "includesElement__specific_heat_capacity": [1.023, 1.026], "includesElement__vdw_radius": [173.0, 192.0], "includesElement__vdw_radius_alvarez": [251.0, 191.0], "includesElement__vdw_radius_mm3": [243.0, 215.0], "includesElement__vdw_radius_uff": [302.1, 408.3], "includesElement__abundance_sea": [1290.0, 4.44], "includesElement__c6_gb": [629.0, 99.2], "includesElement__covalent_radius_bragg": [142.0], "includesElement__electronegativity_allen": [7.646, 12.13], "includesElement__en_allen": [7.646, 12.13], "includesElement__metallic_radius": [136.0, 80.0], "includesElement__metallic_radius_c12": [160.0, 98.0], "includesElement__thermal_conductivity": [156.0, 27.4], "includesElement__vdw_radius_batsanov": [220.0, 180.0], "includesElement__c6": [626.0, 99.5], "includesElement__gas_basicity": [797.3], "includesElement__proton_affinity": [819.6], "includesElement__vdw_radius_bondi": [173.0], "includesElement__electron_affinity": [0.279723], "includesElement__vdw_radius_dreiding": [402.0], "includesElement__vdw_radius_truhlar": [192.0], "formula": ["B2Mg1"], "spacegroup": ["191"], "thermalConductivity": [56.0154], "icsd": ["108064"], "band_gap": [0.0], "density": [2.666306], "density_atomic": [9.534237], "deprecated": [false], "efermi": [5.68073], "energy_above_hull": [0.0], "energy_per_atom": [-6.463242], "formation_energy_per_atom": [-0.1759047], "homogeneous_poisson": [0.192], "is_gap_direct": [false], "is_magnetic": [false], "is_metal": [true], "is_stable": [true], "nelements": [2], "nsites": [3], "num_magnetic_sites": [0], "num_unique_magnetic_sites": [0], "theoretical": [false], "total_magnetization": [1e-07], "total_magnetization_normalized_formula_units": [1e-07], "total_magnetization_normalized_vol": [3.496172e-09], "uncorrected_energy_per_atom": [-6.463242], "universal_anisotropy": [1.559], "volume": [28.60271], "equilibrium_reaction_energy_per_atom": [-0.03191106]}