{"includesElement": ["", "Ba", "C"], "includesElement___series_id": [4, 1], "includesElement__abundance_crust": [425.0, 200.0], "includesElement__atomic_number": [56, 6], "includesElement__atomic_radius": [215.0, 70.0], "includesElement__atomic_radius_rahm": [293.0, 190.0], "includesElement__atomic_volume": [39.0, 5.3], "includesElement__atomic_weight": [137.327, 12.011], "includesElement__covalent_radius_cordero": [215.0, 73.0], "includesElement__covalent_radius_pyykko": [196.0, 75.0], "includesElement__covalent_radius_pyykko_double": [161.0, 67.0], "includesElement__covalent_radius_pyykko_triple": [149.0, 60.0], "includesElement__density": [3.62, 2.2], "includesElement__dipole_polarizability": [272.0, 11.3], "includesElement__dipole_polarizability_unc": [10.0, 0.2], "includesElement__discovery_year": [1808], "includesElement__electron_affinity": [0.14462, 1.262119], "includesElement__electronegativity_allred-rochow": [7.418784e-05, 0.0005777778], "includesElement__electronegativity_cottrell-sutton": [0.1205853, 0.2081666], "includesElement__electronegativity_ghosh": [0.1586786, 0.224776], "includesElement__electronegativity_gordy": [0.01454082, 0.04333333], "includesElement__electronegativity_mulliken": [2.678142, 6.261208], "includesElement__electronegativity_nagle": [0.1944556, 0.7073926], "includesElement__electronegativity_pauling": [0.89, 2.55], "includesElement__electronegativity_sanderson": [0.3032951, 0.427525], "includesElement__en_ghosh": [0.1586786, 0.224776], "includesElement__en_pauling": [0.89, 2.55], "includesElement__evaporation_heat": [142.0], "includesElement__fusion_heat": [7.66], "includesElement__glawe_number": [14, 87], "includesElement__group_id": [2, 14], "includesElement__heat_of_formation": [179.1, 716.87], "includesElement__is_radioactive": [false], "includesElement__lattice_constant": [5.02, 3.57], "includesElement__mendeleev_number": [9, 87], "includesElement__molar_heat_capacity": [28.07, 8.517], "includesElement__period": [6, 2], "includesElement__pettifor_number": [14, 95], "includesElement__specific_heat_capacity": [0.204, 0.709], "includesElement__vdw_radius": [268.0, 170.0], "includesElement__vdw_radius_alvarez": [303.0, 177.0], "includesElement__vdw_radius_mm3": [307.0, 204.0], "includesElement__vdw_radius_uff": [370.3, 385.1], "includesElement__abundance_sea": [0.013, 28.0], "includesElement__atomic_weight_uncertainty": [0.007], "includesElement__c6_gb": [5540.0, 47.9], "includesElement__covalent_radius_bragg": [210.0, 77.0], "includesElement__electronegativity_allen": [5.211, 15.05], "includesElement__en_allen": [5.211, 15.05], "includesElement__metallic_radius": [198.0], "includesElement__metallic_radius_c12": [222.0, 86.0], "includesElement__vdw_radius_batsanov": [270.0, 170.0], "includesElement__vdw_radius_truhlar": [268.0], "includesElement__thermal_conductivity": [1.59], "includesElement__c6": [46.6], "includesElement__vdw_radius_dreiding": [389.83], "includesElement__vdw_radius_bondi": [170.0], "includesElement__vdw_radius_rt": [177.0], "formula": ["Ba1C2"], "spacegroup": ["139"], "thermalConductivity": [6.04298], "icsd": ["168410"], "band_gap": [1.616], "density": [3.795557], "density_atomic": [23.52973], "deprecated": [false], "efermi": [0.3969529], "energy_above_hull": [0.1597822], "energy_per_atom": [-6.697458], "formation_energy_per_atom": [0.09464377], "homogeneous_poisson": [82.881], "is_gap_direct": [false], "is_magnetic": [false], "is_metal": [false], "is_stable": [false], "nelements": [2], "nsites": [3], "num_magnetic_sites": [0], "num_unique_magnetic_sites": [0], "theoretical": [false], "total_magnetization": [0.0004405], "total_magnetization_normalized_formula_units": [0.0004405], "total_magnetization_normalized_vol": [6.240332e-06], "uncorrected_energy_per_atom": [-6.697458], "universal_anisotropy": [-5.23], "volume": [70.58919], "cbm": [1.9752], "vbm": [0.3592]}