{"includesElement": ["", "Be", "Te"], "includesElement___series_id": [4, 5], "includesElement__abundance_crust": [2.8, 0.001], "includesElement__atomic_number": [4, 52], "includesElement__atomic_radius": [105.0, 140.0], "includesElement__atomic_radius_rahm": [219.0, 242.0], "includesElement__atomic_volume": [5.0, 20.5], "includesElement__atomic_weight": [9.012183, 127.6], "includesElement__covalent_radius_cordero": [96.0, 138.0], "includesElement__covalent_radius_pyykko": [102.0, 136.0], "includesElement__covalent_radius_pyykko_double": [90.0, 128.0], "includesElement__covalent_radius_pyykko_triple": [85.0, 121.0], "includesElement__density": [1.85, 6.232], "includesElement__dipole_polarizability": [37.74, 38.0], "includesElement__dipole_polarizability_unc": [0.03, 4.0], "includesElement__discovery_year": [1798, 1782], "includesElement__electron_affinity": [-2.4, 1.970876], "includesElement__electronegativity_allred-rochow": [0.0001874279, 0.0003757569], "includesElement__electronegativity_cottrell-sutton": [0.1382666, 0.2260596], "includesElement__electronegativity_ghosh": [0.144986, 0.2056992], "includesElement__electronegativity_gordy": [0.01911765, 0.05110294], "includesElement__electronegativity_mulliken": [3.461349, 5.490268], "includesElement__electronegativity_nagle": [0.3756148, 0.5404919], "includesElement__electronegativity_pauling": [1.57, 2.1], "includesElement__electronegativity_sanderson": [0.1268473, 0.8622506], "includesElement__en_ghosh": [0.144986, 0.2056992], "includesElement__en_pauling": [1.57, 2.1], "includesElement__evaporation_heat": [309.0, 49.8], "includesElement__fusion_heat": [12.21, 17.91], "includesElement__glawe_number": [77, 94], "includesElement__group_id": [2, 16], "includesElement__heat_of_formation": [324.0, 196.6], "includesElement__is_radioactive": [false], "includesElement__lattice_constant": [2.29, 4.45], "includesElement__mendeleev_number": [75, 102], "includesElement__molar_heat_capacity": [16.443, 25.73], "includesElement__period": [2, 5], "includesElement__pettifor_number": [77, 92], "includesElement__specific_heat_capacity": [1.825, 0.202], "includesElement__vdw_radius": [153.0, 206.0], "includesElement__vdw_radius_alvarez": [198.0, 199.0], "includesElement__vdw_radius_mm3": [223.0, 244.0], "includesElement__vdw_radius_uff": [274.5, 447.0], "includesElement__abundance_sea": [5.6e-06], "includesElement__atomic_weight_uncertainty": [5e-07, 0.03], "includesElement__c6_gb": [214.0, 471.0], "includesElement__covalent_radius_bragg": [115.0, 133.0], "includesElement__electronegativity_allen": [9.323, 12.76], "includesElement__en_allen": [9.323, 12.76], "includesElement__metallic_radius": [89.0, 137.0], "includesElement__metallic_radius_c12": [112.0, 160.0], "includesElement__thermal_conductivity": [201.0, 14.3], "includesElement__vdw_radius_batsanov": [190.0, 210.0], "includesElement__c6": [227.0, 445.0], "includesElement__is_monoisotopic": [true], "includesElement__vdw_radius_truhlar": [153.0], "includesElement__vdw_radius_dreiding": [423.0], "includesElement__vdw_radius_bondi": [206.0], "formula": ["Be1Te1", "BeTe"], "mp_id": ["mp-252"], "spacegroup": ["216"], "thermalConductivity": [12.2154, 259.8643, 383.3834], "icsd": ["183375"], "band_gap": [2.0173], "density": [4.996637], "density_atomic": [22.70025], "deprecated": [false], "efermi": [4.569831], "energy_above_hull": [0.0], "energy_per_atom": [-4.011721], "formation_energy_per_atom": [-0.5703619], "homogeneous_poisson": [0.21], "is_gap_direct": [false], "is_magnetic": [false], "is_metal": [false], "is_stable": [true], "nelements": [2], "nsites": [2], "num_magnetic_sites": [0], "num_unique_magnetic_sites": [0], "theoretical": [false], "total_magnetization": [0.0], "total_magnetization_normalized_formula_units": [0.0], "total_magnetization_normalized_vol": [0.0], "uncorrected_energy_per_atom": [-15.34525], "universal_anisotropy": [0.316], "volume": [45.40051], "cbm": [6.5499], "e_electronic": [7.411457], "e_ionic": [1.086929], "e_total": [8.498386], "equilibrium_reaction_energy_per_atom": [-0.5703619], "n": [2.722399], "vbm": [4.5326], "e_ij_max": [0.171143]}