{"includesElement": ["", "Na", "H"], "includesElement___series_id": [3, 1], "includesElement__abundance_crust": [23600.0, 1400.0], "includesElement__atomic_number": [11, 1], "includesElement__atomic_radius": [180.0, 25.0], "includesElement__atomic_radius_rahm": [225.0, 154.0], "includesElement__atomic_volume": [23.7, 14.1], "includesElement__atomic_weight": [22.98977, 1.008], "includesElement__covalent_radius_cordero": [166.0, 31.0], "includesElement__covalent_radius_pyykko": [155.0, 32.0], "includesElement__covalent_radius_pyykko_double": [160.0], "includesElement__density": [0.97, 8.2e-05], "includesElement__dipole_polarizability": [162.7, 4.50711], "includesElement__dipole_polarizability_unc": [0.5, 3e-05], "includesElement__discovery_year": [1807, 1766], "includesElement__electron_affinity": [0.547926, 0.754195], "includesElement__electronegativity_allred-rochow": [9.157128e-05, 0.0009765625], "includesElement__electronegativity_cottrell-sutton": [0.1191367, 0.1767767], "includesElement__electronegativity_ghosh": [0.093214, 0.2638], "includesElement__electronegativity_gordy": [0.01419355, 0.03125], "includesElement__electronegativity_mulliken": [2.843501, 7.176315], "includesElement__electronegativity_nagle": [0.1831769, 0.6053882], "includesElement__electronegativity_pauling": [0.93, 2.2], "includesElement__electronegativity_sanderson": [0.09459764, 2.187771], "includesElement__en_ghosh": [0.093214, 0.2638], "includesElement__en_pauling": [0.93, 2.2], "includesElement__evaporation_heat": [97.9, 0.904], "includesElement__fusion_heat": [2.64, 0.117], "includesElement__glawe_number": [11, 103], "includesElement__group_id": [1], "includesElement__heat_of_formation": [107.5, 217.998], "includesElement__is_radioactive": [false], "includesElement__lattice_constant": [4.23, 3.75], "includesElement__mendeleev_number": [2, 105], "includesElement__molar_heat_capacity": [28.23, 28.836], "includesElement__period": [3, 1], "includesElement__pettifor_number": [11, 103], "includesElement__specific_heat_capacity": [1.228, 14.304], "includesElement__vdw_radius": [227.0, 110.0], "includesElement__vdw_radius_alvarez": [250.0, 120.0], "includesElement__vdw_radius_mm3": [270.0, 162.0], "includesElement__vdw_radius_uff": [298.3, 288.6], "includesElement__abundance_sea": [10800.0, 108000.0], "includesElement__atomic_weight_uncertainty": [2e-08], "includesElement__c6_gb": [1570.0, 6.51], "includesElement__covalent_radius_bragg": [177.0], "includesElement__electronegativity_allen": [5.14, 13.61], "includesElement__en_allen": [5.14, 13.61], "includesElement__metallic_radius": [157.0], "includesElement__metallic_radius_c12": [190.0, 78.0], "includesElement__thermal_conductivity": [142.0, 0.1815], "includesElement__vdw_radius_batsanov": [240.0], "includesElement__c6": [1518.0, 6.499027], "includesElement__is_monoisotopic": [true], "includesElement__vdw_radius_bondi": [227.0, 120.0], "includesElement__vdw_radius_dreiding": [319.5], "includesElement__vdw_radius_rt": [110.0], "formula": ["H1Na1", "HNa"], "mp_id": ["mp-23870"], "spacegroup": ["225"], "thermalConductivity": [5.44407, 17.58417, 19.82301], "icsd": ["183291"], "band_gap": [3.7666], "density": [1.466045], "density_atomic": [13.59069], "deprecated": [false], "efermi": [-1.014158], "energy_above_hull": [0.0], "energy_per_atom": [-3.802549], "formation_energy_per_atom": [-0.2929028], "homogeneous_poisson": [0.173], "is_gap_direct": [false], "is_magnetic": [false], "is_metal": [false], "is_stable": [true], "nelements": [2], "nsites": [2], "num_magnetic_sites": [0], "num_unique_magnetic_sites": [0], "theoretical": [false], "total_magnetization": [0.0], "total_magnetization_normalized_formula_units": [0.0], "total_magnetization_normalized_vol": [0.0], "uncorrected_energy_per_atom": [-3.802549], "universal_anisotropy": [0.155], "volume": [27.18138], "cbm": [2.6626], "e_electronic": [3.132476], "e_ionic": [7.207073], "e_total": [10.33955], "equilibrium_reaction_energy_per_atom": [-0.2929028], "n": [1.76988], "vbm": [-1.104]}