{"includesElement": ["", "K", "Cl"], "includesElement___series_id": [3, 6], "includesElement__abundance_crust": [20900.0, 145.0], "includesElement__atomic_number": [19, 17], "includesElement__atomic_radius": [220.0, 100.0], "includesElement__atomic_radius_rahm": [234.0, 206.0], "includesElement__atomic_volume": [45.3, 18.7], "includesElement__atomic_weight": [39.0983, 35.45], "includesElement__covalent_radius_cordero": [203.0, 102.0], "includesElement__covalent_radius_pyykko": [196.0, 99.0], "includesElement__covalent_radius_pyykko_double": [193.0, 95.0], "includesElement__density": [0.89, 0.002898], "includesElement__dipole_polarizability": [289.7, 14.6], "includesElement__dipole_polarizability_unc": [0.3, 0.1], "includesElement__discovery_year": [1807, 1774], "includesElement__electron_affinity": [0.50147, 3.612725], "includesElement__electronegativity_allred-rochow": [5.726781e-05, 0.0006223855], "includesElement__electronegativity_cottrell-sutton": [0.1059457, 0.248226], "includesElement__electronegativity_ghosh": [0.0981896, 0.263803], "includesElement__electronegativity_gordy": [0.01122449, 0.06161616], "includesElement__electronegativity_mulliken": [2.421067, 8.290178], "includesElement__electronegativity_nagle": [0.1511299, 0.7826755], "includesElement__electronegativity_pauling": [0.82, 3.16], "includesElement__electronegativity_sanderson": [0.1218383, 0.8123773], "includesElement__en_ghosh": [0.0981896, 0.263803], "includesElement__en_pauling": [0.82, 3.16], "includesElement__evaporation_heat": [2.33, 20.41], "includesElement__fusion_heat": [102.5, 6.41], "includesElement__glawe_number": [10, 101], "includesElement__group_id": [1, 17], "includesElement__heat_of_formation": [89.0, 121.302], "includesElement__is_radioactive": [false], "includesElement__lattice_constant": [5.23, 6.24], "includesElement__mendeleev_number": [3, 107], "includesElement__molar_heat_capacity": [29.6, 33.949], "includesElement__period": [4, 3], "includesElement__pettifor_number": [10, 99], "includesElement__specific_heat_capacity": [0.757, 0.479], "includesElement__vdw_radius": [275.0, 175.0], "includesElement__vdw_radius_alvarez": [273.0, 182.0], "includesElement__vdw_radius_mm3": [309.0, 207.0], "includesElement__vdw_radius_uff": [381.2, 394.7], "includesElement__abundance_sea": [399.0, 19400.0], "includesElement__atomic_weight_uncertainty": [0.0001], "includesElement__c6_gb": [3910.0, 97.1], "includesElement__covalent_radius_bragg": [207.0, 105.0], "includesElement__electronegativity_allen": [4.34, 16.97], "includesElement__en_allen": [4.34, 16.97], "includesElement__metallic_radius": [203.0], "includesElement__metallic_radius_c12": [235.0, 91.0], "includesElement__thermal_conductivity": [79.0, 0.009], "includesElement__vdw_radius_batsanov": [280.0, 180.0], "includesElement__c6": [3923.0, 94.6], "includesElement__vdw_radius_bondi": [275.0, 175.0], "includesElement__covalent_radius_pyykko_triple": [93.0], "includesElement__vdw_radius_dreiding": [395.03], "includesElement__gas_basicity": [490.1], "includesElement__proton_affinity": [513.6], "includesElement__vdw_radius_rt": [176.0], "formula": ["Cl1K1"], "spacegroup": ["221"], "thermalConductivity": [1.23719], "icsd": ["290513"], "band_gap": [4.8005], "density": [2.187678], "density_atomic": [28.29377], "deprecated": [false], "efermi": [-0.7994575], "energy_above_hull": [0.07764382], "energy_per_atom": [-8.182968], "formation_energy_per_atom": [-2.097617], "homogeneous_poisson": [0.3], "is_gap_direct": [false], "is_magnetic": [false], "is_metal": [false], "is_stable": [false], "nelements": [2], "nsites": [2], "num_magnetic_sites": [0], "num_unique_magnetic_sites": [0], "theoretical": [false], "total_magnetization": [0.0], "total_magnetization_normalized_formula_units": [0.0], "total_magnetization_normalized_vol": [0.0], "uncorrected_energy_per_atom": [-3.353058], "universal_anisotropy": [3.949], "volume": [56.58755], "cbm": [3.9684], "vbm": [-0.8321]}