{"includesElement": ["", "Li", "Pd"], "includesElement___series_id": [3, 8], "includesElement__abundance_crust": [20.0, 0.015], "includesElement__atomic_number": [3, 46], "includesElement__atomic_radius": [145.0, 140.0], "includesElement__atomic_radius_rahm": [220.0, 215.0], "includesElement__atomic_volume": [13.1, 8.9], "includesElement__atomic_weight": [6.94, 106.42], "includesElement__covalent_radius_cordero": [128.0, 139.0], "includesElement__covalent_radius_pyykko": [133.0, 120.0], "includesElement__covalent_radius_pyykko_double": [124.0, 117.0], "includesElement__density": [0.534, 12.0], "includesElement__dipole_polarizability": [164.1125, 26.14], "includesElement__dipole_polarizability_unc": [0.0005, 0.1], "includesElement__discovery_year": [1817, 1803], "includesElement__electron_affinity": [0.618049, 0.562], "includesElement__electronegativity_allred-rochow": [7.3492e-05, 0.0004756944], "includesElement__electronegativity_cottrell-sutton": [0.09886575, 0.2389212], "includesElement__electronegativity_ghosh": [0.105093, 0.1440276], "includesElement__electronegativity_gordy": [0.009774436, 0.05708333], "includesElement__electronegativity_mulliken": [3.004882, 4.44943], "includesElement__electronegativity_nagle": [0.1826499, 0.7259357], "includesElement__electronegativity_pauling": [0.98, 2.2], "includesElement__electronegativity_sanderson": [0.04886793, 1.124263], "includesElement__en_ghosh": [0.105093, 0.1440276], "includesElement__en_pauling": [0.98, 2.2], "includesElement__evaporation_heat": [148.0, 372.4], "includesElement__fusion_heat": [2.89, 17.24], "includesElement__glawe_number": [12, 65], "includesElement__group_id": [1, 10], "includesElement__heat_of_formation": [159.3, 376.6], "includesElement__is_radioactive": [false], "includesElement__lattice_constant": [3.49, 3.89], "includesElement__mendeleev_number": [1, 68], "includesElement__molar_heat_capacity": [24.86, 25.98], "includesElement__period": [2, 5], "includesElement__pettifor_number": [12, 69], "includesElement__specific_heat_capacity": [3.582, 0.246], "includesElement__vdw_radius": [182.0, 210.0], "includesElement__vdw_radius_alvarez": [212.0, 215.0], "includesElement__vdw_radius_mm3": [255.0, 237.0], "includesElement__vdw_radius_uff": [245.1, 289.9], "includesElement__abundance_sea": [0.18], "includesElement__c6_gb": [1410.0, 628.0], "includesElement__covalent_radius_bragg": [150.0], "includesElement__electronegativity_allen": [5.392, 9.402], "includesElement__en_allen": [5.392, 9.402], "includesElement__metallic_radius": [123.0, 128.0], "includesElement__metallic_radius_c12": [155.0, 137.0], "includesElement__thermal_conductivity": [84.8, 71.8], "includesElement__vdw_radius_batsanov": [220.0, 205.0], "includesElement__c6": [1392.0], "includesElement__vdw_radius_bondi": [181.0], "includesElement__covalent_radius_pyykko_triple": [112.0], "includesElement__atomic_weight_uncertainty": [0.01], "includesElement__gas_basicity": [673.4], "includesElement__proton_affinity": [696.0], "formula": ["Li1Pd1"], "spacegroup": ["221"], "thermalConductivity": [3.2406], "icsd": ["104769"], "band_gap": [0.0], "density": [7.260713], "density_atomic": [12.96294], "deprecated": [false], "efermi": [2.902271], "energy_above_hull": [0.02150779], "energy_per_atom": [-13.06873], "formation_energy_per_atom": [-0.3951474], "homogeneous_poisson": [0.347], "is_gap_direct": [false], "is_magnetic": [false], "is_metal": [true], "is_stable": [false], "nelements": [2], "nsites": [2], "num_magnetic_sites": [0], "num_unique_magnetic_sites": [0], "theoretical": [false], "total_magnetization": [1.1e-06], "total_magnetization_normalized_formula_units": [1.1e-06], "total_magnetization_normalized_vol": [4.242865e-08], "uncorrected_energy_per_atom": [-13.06873], "universal_anisotropy": [1.823], "volume": [25.92588]}