{"includesElement": ["", "Ba", "Ge"], "includesElement___series_id": [4, 5], "includesElement__abundance_crust": [425.0, 1.5], "includesElement__atomic_number": [56, 32], "includesElement__atomic_radius": [215.0, 125.0], "includesElement__atomic_radius_rahm": [293.0, 234.0], "includesElement__atomic_volume": [39.0, 13.6], "includesElement__atomic_weight": [137.327, 72.63], "includesElement__covalent_radius_cordero": [215.0, 120.0], "includesElement__covalent_radius_pyykko": [196.0, 121.0], "includesElement__covalent_radius_pyykko_double": [161.0, 111.0], "includesElement__covalent_radius_pyykko_triple": [149.0, 114.0], "includesElement__density": [3.62, 5.3234], "includesElement__dipole_polarizability": [272.0, 40.0], "includesElement__dipole_polarizability_unc": [10.0, 1.0], "includesElement__discovery_year": [1808, 1886], "includesElement__electron_affinity": [0.14462, 1.232712], "includesElement__electronegativity_allred-rochow": [7.418784e-05, 0.0003859026], "includesElement__electronegativity_cottrell-sutton": [0.1205853, 0.2160884], "includesElement__electronegativity_ghosh": [0.1586786, 0.1895892], "includesElement__electronegativity_gordy": [0.01454082, 0.04669421], "includesElement__electronegativity_mulliken": [2.678142, 4.566073], "includesElement__electronegativity_nagle": [0.1944556, 0.4641589], "includesElement__electronegativity_pauling": [0.89, 2.01], "includesElement__electronegativity_sanderson": [0.3032951, 0.8001471], "includesElement__en_ghosh": [0.1586786, 0.1895892], "includesElement__en_pauling": [0.89, 2.01], "includesElement__evaporation_heat": [142.0, 328.0], "includesElement__fusion_heat": [7.66, 36.8], "includesElement__glawe_number": [14, 84], "includesElement__group_id": [2, 14], "includesElement__heat_of_formation": [179.1, 372.0], "includesElement__is_radioactive": [false], "includesElement__lattice_constant": [5.02, 5.66], "includesElement__mendeleev_number": [9, 89], "includesElement__molar_heat_capacity": [28.07, 23.222], "includesElement__period": [6, 4], "includesElement__pettifor_number": [14, 84], "includesElement__specific_heat_capacity": [0.204, 0.32], "includesElement__vdw_radius": [268.0, 211.0], "includesElement__vdw_radius_alvarez": [303.0, 229.0], "includesElement__vdw_radius_mm3": [307.0, 244.0], "includesElement__vdw_radius_uff": [370.3, 428.0], "includesElement__abundance_sea": [0.013, 5e-05], "includesElement__atomic_weight_uncertainty": [0.007, 0.008], "includesElement__c6_gb": [5540.0, 365.0], "includesElement__covalent_radius_bragg": [210.0], "includesElement__electronegativity_allen": [5.211, 11.8], "includesElement__en_allen": [5.211, 11.8], "includesElement__metallic_radius": [198.0, 124.0], "includesElement__metallic_radius_c12": [222.0, 144.0], "includesElement__vdw_radius_batsanov": [270.0, 210.0], "includesElement__vdw_radius_truhlar": [268.0, 211.0], "includesElement__thermal_conductivity": [60.2], "includesElement__c6": [354.0], "includesElement__vdw_radius_dreiding": [427.0], "formula": ["Ba8Ge4"], "spacegroup": ["62"], "thermalConductivity": [0.827227], "icsd": ["25351"], "band_gap": [0.0], "density": [4.854172], "density_atomic": [39.60135], "deprecated": [false], "efermi": [2.736452], "energy_above_hull": [0.0], "energy_per_atom": [-3.312494], "formation_energy_per_atom": [-0.4921683], "is_gap_direct": [false], "is_magnetic": [false], "is_metal": [true], "is_stable": [true], "nelements": [2], "nsites": [12], "num_magnetic_sites": [0], "num_unique_magnetic_sites": [0], "theoretical": [false], "total_magnetization": [0.0], "total_magnetization_normalized_formula_units": [0.0], "total_magnetization_normalized_vol": [0.0], "uncorrected_energy_per_atom": [-22.85534], "volume": [475.2162], "equilibrium_reaction_energy_per_atom": [-0.0946844]}