{"includesElement": ["", "Mn"], "includesElement___series_id": [8], "includesElement__abundance_crust": [950.0], "includesElement__atomic_number": [25], "includesElement__atomic_radius": [140.0], "includesElement__atomic_radius_rahm": [242.0], "includesElement__atomic_volume": [7.39], "includesElement__atomic_weight": [54.93804], "includesElement__covalent_radius_cordero": [150.0], "includesElement__covalent_radius_pyykko": [119.0], "includesElement__covalent_radius_pyykko_double": [105.0], "includesElement__covalent_radius_pyykko_triple": [103.0], "includesElement__density": [7.3], "includesElement__dipole_polarizability": [68.0], "includesElement__dipole_polarizability_unc": [9.0], "includesElement__discovery_year": [1774], "includesElement__electronegativity_allred-rochow": [0.0002542193], "includesElement__electronegativity_cottrell-sutton": [0.1739313], "includesElement__electronegativity_ghosh": [0.1352844], "includesElement__electronegativity_gordy": [0.0302521], "includesElement__electronegativity_mulliken": [3.717009], "includesElement__electronegativity_nagle": [0.4686656], "includesElement__electronegativity_pauling": [1.55], "includesElement__electronegativity_sanderson": [0.6707264], "includesElement__en_ghosh": [0.1352844], "includesElement__en_pauling": [1.55], "includesElement__evaporation_heat": [221.0], "includesElement__fusion_heat": [13.4], "includesElement__glawe_number": [72], "includesElement__group_id": [7], "includesElement__heat_of_formation": [283.3], "includesElement__is_radioactive": [false], "includesElement__lattice_constant": [8.89], "includesElement__mendeleev_number": [55], "includesElement__molar_heat_capacity": [26.32], "includesElement__period": [4], "includesElement__pettifor_number": [60], "includesElement__specific_heat_capacity": [0.479], "includesElement__vdw_radius": [205.0], "includesElement__vdw_radius_alvarez": [245.0], "includesElement__vdw_radius_mm3": [224.0], "includesElement__vdw_radius_uff": [296.1], "includesElement__abundance_sea": [0.0002], "includesElement__atomic_weight_uncertainty": [3e-06], "includesElement__c6_gb": [635.0], "includesElement__covalent_radius_bragg": [147.0], "includesElement__electronegativity_allen": [10.34], "includesElement__en_allen": [10.34], "includesElement__metallic_radius": [118.0], "includesElement__metallic_radius_c12": [127.0], "includesElement__vdw_radius_batsanov": [205.0], "includesElement__c6": [552.0], "includesElement__is_monoisotopic": [true], "includesElement__gas_basicity": [774.4], "includesElement__proton_affinity": [797.3], "formula": ["Mn1"], "spacegroup": ["225"], "thermalConductivity": [20.9082], "icsd": ["41509"], "band_gap": [0.0], "density": [8.735489], "density_atomic": [10.44324], "deprecated": [false], "efermi": [6.745295], "energy_above_hull": [0.4205954], "energy_per_atom": [-14.26274], "formation_energy_per_atom": [0.4205954], "homogeneous_poisson": [0.312], "is_gap_direct": [false], "is_magnetic": [false], "is_metal": [true], "is_stable": [false], "nelements": [1], "nsites": [1], "num_magnetic_sites": [0], "num_unique_magnetic_sites": [0], "theoretical": [true], "total_magnetization": [0.0013412], "total_magnetization_normalized_formula_units": [0.0013412], "total_magnetization_normalized_vol": [0.0001284276], "uncorrected_energy_per_atom": [-14.26274], "universal_anisotropy": [1.116], "volume": [10.44324]}