{"includesElement": ["", "Mg", "F", "Cs"], "includesElement___series_id": [4, 6, 3], "includesElement__abundance_crust": [23300.0, 585.0, 3.0], "includesElement__atomic_number": [12, 9, 55], "includesElement__atomic_radius": [150.0, 50.0, 260.0], "includesElement__atomic_radius_rahm": [240.0, 163.0, 249.0], "includesElement__atomic_volume": [14.0, 17.1, 70.0], "includesElement__atomic_weight": [24.305, 18.9984, 132.9055], "includesElement__covalent_radius_cordero": [141.0, 57.0, 244.0], "includesElement__covalent_radius_pyykko": [139.0, 64.0, 232.0], "includesElement__covalent_radius_pyykko_double": [132.0, 59.0, 209.0], "includesElement__covalent_radius_pyykko_triple": [127.0, 53.0], "includesElement__density": [1.74, 0.001553, 1.873], "includesElement__dipole_polarizability": [71.2, 3.74, 400.9], "includesElement__dipole_polarizability_unc": [0.4, 0.08, 0.7], "includesElement__discovery_year": [1808, 1886, 1860], "includesElement__electronegativity_allred-rochow": [0.0001475079, 0.001269531, 4.087396e-05], "includesElement__electronegativity_cottrell-sutton": [0.1431908, 0.2850439, 0.09737946], "includesElement__electronegativity_ghosh": [0.121644, 0.344443, 0.1542125], "includesElement__electronegativity_gordy": [0.0205036, 0.08125, 0.009482759], "includesElement__electronegativity_mulliken": [3.823117, 10.412, 2.182766], "includesElement__electronegativity_nagle": [0.3039835, 1.232373, 0.1356192], "includesElement__electronegativity_pauling": [1.31, 3.98, 0.79], "includesElement__electronegativity_sanderson": [0.1524211, 1.017681, 0.1814531], "includesElement__en_ghosh": [0.121644, 0.344443, 0.1542125], "includesElement__en_pauling": [1.31, 3.98, 0.79], "includesElement__evaporation_heat": [131.8, 6.54, 68.3], "includesElement__fusion_heat": [9.2, 0.51, 2.09], "includesElement__glawe_number": [73, 102, 8], "includesElement__group_id": [2, 17, 1], "includesElement__heat_of_formation": [147.1, 79.335, 76.5], "includesElement__is_radioactive": [false], "includesElement__lattice_constant": [3.21, 6.05], "includesElement__mendeleev_number": [76, 106, 5], "includesElement__molar_heat_capacity": [24.869, 31.304, 32.21], "includesElement__period": [3, 2, 6], "includesElement__pettifor_number": [73, 102, 8], "includesElement__specific_heat_capacity": [1.023, 0.824, 0.242], "includesElement__vdw_radius": [173.0, 147.0, 343.0], "includesElement__vdw_radius_alvarez": [251.0, 146.0, 348.0], "includesElement__vdw_radius_mm3": [243.0, 171.0, 344.0], "includesElement__vdw_radius_uff": [302.1, 336.4, 451.7], "includesElement__abundance_sea": [1290.0, 1.3, 0.0003], "includesElement__c6_gb": [629.0, 10.2, 6660.0], "includesElement__covalent_radius_bragg": [142.0, 67.0, 237.0], "includesElement__electronegativity_allen": [7.646, 24.8, 3.898], "includesElement__en_allen": [7.646, 24.8, 3.898], "includesElement__metallic_radius": [136.0, 235.0], "includesElement__metallic_radius_c12": [160.0, 267.0], "includesElement__thermal_conductivity": [156.0, 0.028, 35.9], "includesElement__vdw_radius_batsanov": [220.0, 150.0, 300.0], "includesElement__c6": [626.0, 9.52], "includesElement__gas_basicity": [797.3, 315.1], "includesElement__proton_affinity": [819.6, 340.1], "includesElement__vdw_radius_bondi": [173.0, 147.0], "includesElement__electron_affinity": [3.40119, 0.471626], "includesElement__atomic_weight_uncertainty": [6e-09, 6e-08], "includesElement__is_monoisotopic": [true], "includesElement__vdw_radius_dreiding": [347.2], "includesElement__vdw_radius_rt": [146.0], "includesElement__vdw_radius_truhlar": [343.0], "formula": ["Cs1F3Mg1"], "spacegroup": ["221"], "thermalConductivity": [3.34248], "icsd": ["290360"], "band_gap": [6.7028], "density": [4.626006], "density_atomic": [15.37814], "deprecated": [false], "efermi": [-0.6911235], "energy_above_hull": [0.05763062], "energy_per_atom": [-11.15895], "formation_energy_per_atom": [-3.431054], "homogeneous_poisson": [0.258], "is_gap_direct": [true], "is_magnetic": [false], "is_metal": [false], "is_stable": [false], "nelements": [3], "nsites": [5], "num_magnetic_sites": [0], "num_unique_magnetic_sites": [0], "theoretical": [false], "total_magnetization": [1.74e-05], "total_magnetization_normalized_formula_units": [1.74e-05], "total_magnetization_normalized_vol": [2.262952e-07], "uncorrected_energy_per_atom": [-4.794826], "universal_anisotropy": [0.64], "volume": [76.8907], "cbm": [5.9199], "vbm": [-0.7829]}