{"includesElement": ["", "Sc", "Rh"], "includesElement___series_id": [8], "includesElement__abundance_crust": [22.0, 0.001], "includesElement__atomic_number": [21, 45], "includesElement__atomic_radius": [160.0, 135.0], "includesElement__atomic_radius_rahm": [263.0, 233.0], "includesElement__atomic_volume": [15.0, 8.3], "includesElement__atomic_weight": [44.95591, 102.9055], "includesElement__covalent_radius_cordero": [170.0, 142.0], "includesElement__covalent_radius_pyykko": [148.0, 125.0], "includesElement__covalent_radius_pyykko_double": [116.0, 110.0], "includesElement__covalent_radius_pyykko_triple": [114.0, 106.0], "includesElement__density": [2.99, 12.4], "includesElement__dipole_polarizability": [97.0, 66.0], "includesElement__dipole_polarizability_unc": [10.0], "includesElement__discovery_year": [1879, 1803], "includesElement__electron_affinity": [0.188, 1.137], "includesElement__electronegativity_allred-rochow": [0.0001369613, 0.0002176], "includesElement__electronegativity_cottrell-sutton": [0.1423737, 0.1649242], "includesElement__electronegativity_ghosh": [0.1193833, 0.1408379], "includesElement__electronegativity_gordy": [0.02027027, 0.0272], "includesElement__electronegativity_mulliken": [3.374745, 4.29795], "includesElement__electronegativity_nagle": [0.3138941, 0.5147142], "includesElement__electronegativity_pauling": [1.36, 2.28], "includesElement__electronegativity_sanderson": [0.3038674, 0.9761915], "includesElement__en_ghosh": [0.1193833, 0.1408379], "includesElement__en_pauling": [1.36, 2.28], "includesElement__evaporation_heat": [332.7, 494.0], "includesElement__fusion_heat": [15.8, 21.8], "includesElement__glawe_number": [48, 63], "includesElement__group_id": [3, 9], "includesElement__heat_of_formation": [377.8, 556.0], "includesElement__is_radioactive": [false], "includesElement__lattice_constant": [3.31, 3.8], "includesElement__mendeleev_number": [11, 64], "includesElement__molar_heat_capacity": [25.52, 24.98], "includesElement__period": [4, 5], "includesElement__pettifor_number": [20, 66], "includesElement__specific_heat_capacity": [0.568, 0.243], "includesElement__vdw_radius": [215.0, 210.0], "includesElement__vdw_radius_alvarez": [258.0, 244.0], "includesElement__vdw_radius_mm3": [261.0, 234.0], "includesElement__vdw_radius_uff": [329.5, 292.9], "includesElement__abundance_sea": [6e-07], "includesElement__atomic_weight_uncertainty": [5e-06, 2e-05], "includesElement__c6_gb": [1570.0, 708.0], "includesElement__electronegativity_allen": [7.042, 9.259], "includesElement__en_allen": [7.042, 9.259], "includesElement__metallic_radius": [144.0, 125.0], "includesElement__metallic_radius_c12": [162.0, 134.0], "includesElement__thermal_conductivity": [15.8, 150.0], "includesElement__vdw_radius_batsanov": [230.0, 200.0], "includesElement__c6": [1383.0], "includesElement__is_monoisotopic": [true], "includesElement__gas_basicity": [892.0, 745.4], "includesElement__proton_affinity": [914.0, 768.0], "formula": ["Rh3Sc1"], "spacegroup": ["221"], "thermalConductivity": [10.1346], "icsd": ["105920"], "band_gap": [0.0], "density": [9.873381], "density_atomic": [14.87046], "deprecated": [false], "efermi": [6.419852], "energy_above_hull": [0.0], "energy_per_atom": [-7.71319], "formation_energy_per_atom": [-0.6068414], "homogeneous_poisson": [0.302], "is_gap_direct": [false], "is_magnetic": [false], "is_metal": [true], "is_stable": [true], "nelements": [2], "nsites": [4], "num_magnetic_sites": [0], "num_unique_magnetic_sites": [0], "theoretical": [false], "total_magnetization": [1.56e-05], "total_magnetization_normalized_formula_units": [1.56e-05], "total_magnetization_normalized_vol": [2.622649e-07], "uncorrected_energy_per_atom": [-21.59286], "universal_anisotropy": [0.928], "volume": [59.48184], "equilibrium_reaction_energy_per_atom": [-0.09123583]}