{"includesElement": ["", "Al", "Os"], "includesElement___series_id": [7, 8], "includesElement__abundance_crust": [82300.0, 0.0015], "includesElement__atomic_number": [13, 76], "includesElement__atomic_radius": [125.0, 130.0], "includesElement__atomic_radius_rahm": [239.0, 244.0], "includesElement__atomic_volume": [10.0, 8.43], "includesElement__atomic_weight": [26.98154, 190.23], "includesElement__covalent_radius_cordero": [121.0, 144.0], "includesElement__covalent_radius_pyykko": [126.0, 129.0], "includesElement__covalent_radius_pyykko_double": [113.0, 116.0], "includesElement__covalent_radius_pyykko_triple": [111.0, 109.0], "includesElement__density": [2.7, 22.5872], "includesElement__dipole_polarizability": [57.8, 57.0], "includesElement__dipole_polarizability_unc": [1.0, 3.0], "includesElement__discovery_year": [1825, 1804], "includesElement__electron_affinity": [0.43283, 1.1], "includesElement__electronegativity_allred-rochow": [0.0002204586, 0.000225347], "includesElement__electronegativity_cottrell-sutton": [0.1666667, 0.1704986], "includesElement__electronegativity_ghosh": [0.150078, 0.2479845], "includesElement__electronegativity_gordy": [0.02777778, 0.02906977], "includesElement__electronegativity_mulliken": [3.209299, 4.769115], "includesElement__electronegativity_nagle": [0.3730192, 0.5196828], "includesElement__electronegativity_pauling": [1.61, 2.2], "includesElement__electronegativity_sanderson": [0.2360927, 1.239276], "includesElement__en_ghosh": [0.150078, 0.2479845], "includesElement__en_pauling": [1.61, 2.2], "includesElement__evaporation_heat": [284.1, 738.0], "includesElement__fusion_heat": [10.75, 31.7], "includesElement__glawe_number": [78, 60], "includesElement__group_id": [13, 8], "includesElement__heat_of_formation": [330.9, 787.0], "includesElement__is_radioactive": [false], "includesElement__lattice_constant": [4.05, 2.74], "includesElement__mendeleev_number": [82, 61], "includesElement__molar_heat_capacity": [24.2, 24.7], "includesElement__period": [3, 6], "includesElement__pettifor_number": [80, 62], "includesElement__specific_heat_capacity": [0.897, 0.13], "includesElement__vdw_radius": [184.0, 216.0], "includesElement__vdw_radius_alvarez": [225.0, 248.0], "includesElement__vdw_radius_mm3": [236.0, 235.0], "includesElement__vdw_radius_uff": [449.9, 312.0], "includesElement__abundance_sea": [0.002], "includesElement__atomic_weight_uncertainty": [7e-07, 0.03], "includesElement__c6_gb": [520.0, 584.0], "includesElement__covalent_radius_bragg": [135.0], "includesElement__electronegativity_allen": [9.539, 9.78], "includesElement__en_allen": [9.539, 9.78], "includesElement__metallic_radius": [125.0, 126.0], "includesElement__metallic_radius_c12": [143.0, 135.0], "includesElement__thermal_conductivity": [237.0], "includesElement__vdw_radius_batsanov": [210.0, 200.0], "includesElement__c6": [528.0], "includesElement__is_monoisotopic": [true], "includesElement__vdw_radius_dreiding": [439.0], "includesElement__vdw_radius_truhlar": [184.0], "formula": ["Al2Os1"], "spacegroup": ["139"], "thermalConductivity": [32.569], "icsd": ["58108"], "band_gap": [0.2899], "density": [9.810988], "density_atomic": [13.7768], "deprecated": [false], "efermi": [9.17168], "energy_above_hull": [0.0], "energy_per_atom": [-22.8201], "formation_energy_per_atom": [-0.6702917], "homogeneous_poisson": [0.2], "is_gap_direct": [false], "is_magnetic": [false], "is_metal": [false], "is_stable": [true], "nelements": [2], "nsites": [3], "num_magnetic_sites": [0], "num_unique_magnetic_sites": [0], "theoretical": [false], "total_magnetization": [0.0], "total_magnetization_normalized_formula_units": [0.0], "total_magnetization_normalized_vol": [0.0], "uncorrected_energy_per_atom": [-22.8201], "universal_anisotropy": [0.319], "volume": [41.33041], "cbm": [9.3105], "e_electronic": [17.30252], "e_ionic": [16.25124], "e_total": [33.55375], "equilibrium_reaction_energy_per_atom": [-0.2070173], "n": [4.15963], "vbm": [9.0206]}