{"includesElement": ["", "Yb", "Au"], "includesElement___series_id": [9, 8], "includesElement__abundance_crust": [3.2, 0.004], "includesElement__atomic_number": [70, 79], "includesElement__atomic_radius": [175.0, 135.0], "includesElement__atomic_radius_rahm": [277.0, 226.0], "includesElement__atomic_volume": [24.8, 10.2], "includesElement__atomic_weight": [173.045, 196.9666], "includesElement__covalent_radius_cordero": [187.0, 136.0], "includesElement__covalent_radius_pyykko": [170.0, 124.0], "includesElement__covalent_radius_pyykko_double": [129.0, 121.0], "includesElement__density": [6.9, 19.3], "includesElement__dipole_polarizability": [139.0, 36.0], "includesElement__dipole_polarizability_unc": [6.0, 3.0], "includesElement__discovery_year": [1878], "includesElement__electron_affinity": [-0.02, 2.30863], "includesElement__electronegativity_allred-rochow": [9.861592e-05, 0.0002406348], "includesElement__electronegativity_cottrell-sutton": [0.1294786, 0.1727388], "includesElement__electronegativity_ghosh": [0.22119, 0.26137], "includesElement__electronegativity_gordy": [0.01676471, 0.02983871], "includesElement__electronegativity_mulliken": [3.11708, 5.767091], "includesElement__electronegativity_nagle": [0.4864465, 0.67354], "includesElement__electronegativity_sanderson": [0.5176678, 1.426701], "includesElement__en_ghosh": [0.22119, 0.26137], "includesElement__evaporation_heat": [159.0, 340.0], "includesElement__fusion_heat": [3.35, 12.68], "includesElement__glawe_number": [18, 66], "includesElement__heat_of_formation": [155.6, 368.2], "includesElement__is_radioactive": [false], "includesElement__lattice_constant": [5.49, 4.08], "includesElement__mendeleev_number": [39, 73], "includesElement__molar_heat_capacity": [26.74, 25.418], "includesElement__period": [6], "includesElement__pettifor_number": [17, 70], "includesElement__specific_heat_capacity": [0.155, 0.129], "includesElement__vdw_radius": [226.0, 214.0], "includesElement__vdw_radius_alvarez": [280.0, 232.0], "includesElement__vdw_radius_mm3": [279.0, 243.0], "includesElement__vdw_radius_uff": [335.5, 329.3], "includesElement__abundance_sea": [8.2e-07, 4e-06], "includesElement__atomic_weight_uncertainty": [0.01, 5e-06], "includesElement__c6_gb": [1910.0, 427.0], "includesElement__covalent_radius_pyykko_triple": [123.0], "includesElement__electronegativity_pauling": [2.4], "includesElement__en_pauling": [2.4], "includesElement__group_id": [11], "includesElement__electronegativity_allen": [11.33], "includesElement__en_allen": [11.33], "includesElement__metallic_radius": [134.0], "includesElement__metallic_radius_c12": [144.0], "includesElement__thermal_conductivity": [318.0], "includesElement__vdw_radius_batsanov": [210.0], "includesElement__is_monoisotopic": [true], "formula": ["Au4Yb1"], "spacegroup": ["87"], "thermalConductivity": [0.530069], "icsd": ["58623"], "band_gap": [0.0], "density": [16.42268], "density_atomic": [19.43194], "deprecated": [false], "efermi": [4.039243], "is_gap_direct": [false], "is_magnetic": [false], "is_metal": [true], "is_stable": [false], "nelements": [2], "nsites": [5], "num_magnetic_sites": [0], "num_unique_magnetic_sites": [0], "theoretical": [false], "total_magnetization": [3.26e-05], "total_magnetization_normalized_formula_units": [3.26e-05], "total_magnetization_normalized_vol": [3.355301e-07], "volume": [97.15968]}