{"includesElement": ["", "Nb", "Ir"], "includesElement___series_id": [8], "includesElement__abundance_crust": [20.0, 0.001], "includesElement__atomic_number": [41, 77], "includesElement__atomic_radius": [145.0, 135.0], "includesElement__atomic_radius_rahm": [251.0, 240.0], "includesElement__atomic_volume": [10.8, 8.54], "includesElement__atomic_weight": [92.90637, 192.217], "includesElement__covalent_radius_cordero": [164.0, 141.0], "includesElement__covalent_radius_pyykko": [147.0, 122.0], "includesElement__covalent_radius_pyykko_double": [125.0, 115.0], "includesElement__covalent_radius_pyykko_triple": [116.0, 107.0], "includesElement__density": [8.57, 22.5622], "includesElement__dipole_polarizability": [98.0, 54.0], "includesElement__dipole_polarizability_unc": [8.0, 7.0], "includesElement__discovery_year": [1801, 1804], "includesElement__electron_affinity": [0.917406, 1.5638], "includesElement__electronegativity_allred-rochow": [0.0001295756, 0.0002620263], "includesElement__electronegativity_cottrell-sutton": [0.1380131, 0.1787938], "includesElement__electronegativity_ghosh": [0.1280782, 0.25106], "includesElement__electronegativity_gordy": [0.01904762, 0.03196721], "includesElement__electronegativity_mulliken": [3.838128, 5.26541], "includesElement__electronegativity_nagle": [0.3708924, 0.5503212], "includesElement__electronegativity_pauling": [1.6, 2.2], "includesElement__electronegativity_sanderson": [0.5561695, 1.475998], "includesElement__en_ghosh": [0.1280782, 0.25106], "includesElement__en_pauling": [1.6, 2.2], "includesElement__evaporation_heat": [680.0, 604.0], "includesElement__fusion_heat": [26.8, 27.61], "includesElement__glawe_number": [53, 62], "includesElement__group_id": [5, 9], "includesElement__heat_of_formation": [733.0, 669.0], "includesElement__is_radioactive": [false], "includesElement__lattice_constant": [3.3, 3.84], "includesElement__mendeleev_number": [48, 65], "includesElement__molar_heat_capacity": [24.6, 25.1], "includesElement__period": [5, 6], "includesElement__pettifor_number": [52, 65], "includesElement__specific_heat_capacity": [0.265, 0.131], "includesElement__vdw_radius": [218.0, 213.0], "includesElement__vdw_radius_alvarez": [256.0, 241.0], "includesElement__vdw_radius_mm3": [243.0, 236.0], "includesElement__vdw_radius_uff": [316.5, 284.0], "includesElement__abundance_sea": [1e-05], "includesElement__atomic_weight_uncertainty": [2e-05, 0.003], "includesElement__c6_gb": [1140.0, 522.0], "includesElement__electronegativity_allen": [8.34, 9.96], "includesElement__en_allen": [8.34, 9.96], "includesElement__metallic_radius": [134.0, 127.0], "includesElement__metallic_radius_c12": [146.0, 136.0], "includesElement__thermal_conductivity": [53.7, 147.0], "includesElement__vdw_radius_batsanov": [215.0, 200.0], "includesElement__is_monoisotopic": [true], "formula": ["Ir3Nb1"], "spacegroup": ["221"], "thermalConductivity": [27.8626], "icsd": ["104515"], "band_gap": [0.0], "density": [18.55115], "density_atomic": [14.98325], "deprecated": [false], "efermi": [9.231709], "energy_above_hull": [0.00225121], "energy_per_atom": [-9.764001], "formation_energy_per_atom": [-0.6098487], "homogeneous_poisson": [0.23], "is_gap_direct": [false], "is_magnetic": [false], "is_metal": [true], "is_stable": [false], "nelements": [2], "nsites": [4], "num_magnetic_sites": [0], "num_unique_magnetic_sites": [0], "theoretical": [false], "total_magnetization": [1.1e-06], "total_magnetization_normalized_formula_units": [1.1e-06], "total_magnetization_normalized_vol": [1.835383e-08], "uncorrected_energy_per_atom": [-46.10648], "universal_anisotropy": [0.227], "volume": [59.93299]}