{"includesElement": ["", "Sn", "O"], "includesElement___series_id": [7, 1], "includesElement__abundance_crust": [2.3, 461000.0], "includesElement__atomic_number": [50, 8], "includesElement__atomic_radius": [145.0, 60.0], "includesElement__atomic_radius_rahm": [248.0, 171.0], "includesElement__atomic_volume": [16.3, 14.0], "includesElement__atomic_weight": [118.71, 15.999], "includesElement__covalent_radius_cordero": [139.0, 66.0], "includesElement__covalent_radius_pyykko": [140.0, 63.0], "includesElement__covalent_radius_pyykko_double": [130.0, 57.0], "includesElement__covalent_radius_pyykko_triple": [132.0, 53.0], "includesElement__density": [7.287, 0.001308], "includesElement__dipole_polarizability": [53.0, 5.3], "includesElement__dipole_polarizability_unc": [6.0, 0.2], "includesElement__electron_affinity": [1.112067, 1.461113], "includesElement__electronegativity_allred-rochow": [0.0002882653, 0.001146384], "includesElement__electronegativity_cottrell-sutton": [0.2008909, 0.2687419], "includesElement__electronegativity_ghosh": [0.178052, 0.304575], "includesElement__electronegativity_gordy": [0.04035714, 0.07222222], "includesElement__electronegativity_mulliken": [4.227992, 7.539584], "includesElement__electronegativity_nagle": [0.4225986, 1.042218], "includesElement__electronegativity_pauling": [1.96, 3.44], "includesElement__electronegativity_sanderson": [0.7622797, 0.9416494], "includesElement__en_ghosh": [0.178052, 0.304575], "includesElement__en_pauling": [1.96, 3.44], "includesElement__evaporation_heat": [296.0], "includesElement__fusion_heat": [7.07], "includesElement__glawe_number": [83, 97], "includesElement__group_id": [14, 16], "includesElement__heat_of_formation": [301.2, 249.229], "includesElement__is_radioactive": [false], "includesElement__lattice_constant": [5.82, 6.83], "includesElement__mendeleev_number": [90, 99], "includesElement__molar_heat_capacity": [26.99, 29.378], "includesElement__period": [5, 2], "includesElement__pettifor_number": [83, 101], "includesElement__specific_heat_capacity": [0.227, 0.918], "includesElement__vdw_radius": [217.0, 152.0], "includesElement__vdw_radius_alvarez": [242.0, 150.0], "includesElement__vdw_radius_mm3": [259.0, 182.0], "includesElement__vdw_radius_uff": [439.2, 350.0], "includesElement__abundance_sea": [4e-06, 857000.0], "includesElement__atomic_weight_uncertainty": [0.007], "includesElement__c6_gb": [715.0, 16.7], "includesElement__covalent_radius_bragg": [140.0, 65.0], "includesElement__electronegativity_allen": [10.79, 21.36], "includesElement__en_allen": [10.79, 21.36], "includesElement__metallic_radius": [142.0], "includesElement__metallic_radius_c12": [163.0], "includesElement__thermal_conductivity": [66.8, 0.027], "includesElement__vdw_radius_batsanov": [225.0, 155.0], "includesElement__c6": [659.0, 15.6], "includesElement__vdw_radius_dreiding": [447.0, 340.46], "includesElement__vdw_radius_bondi": [217.0, 152.0], "includesElement__discovery_year": [1774], "includesElement__gas_basicity": [459.6], "includesElement__proton_affinity": [485.2], "includesElement__vdw_radius_rt": [158.0], "formula": ["O2Sn1"], "spacegroup": ["225"], "thermalConductivity": [5.86964], "icsd": ["157453"], "band_gap": [0.0], "density": [7.335947], "density_atomic": [11.3713], "deprecated": [false], "efermi": [7.363251], "energy_above_hull": [0.2456581], "energy_per_atom": [-13.86462], "formation_energy_per_atom": [-1.642127], "homogeneous_poisson": [0.36], "is_gap_direct": [false], "is_magnetic": [false], "is_metal": [true], "is_stable": [false], "nelements": [2], "nsites": [3], "num_magnetic_sites": [0], "num_unique_magnetic_sites": [0], "theoretical": [true], "total_magnetization": [0.0001138], "total_magnetization_normalized_formula_units": [0.0001138], "total_magnetization_normalized_vol": [3.335882e-06], "uncorrected_energy_per_atom": [-6.038989], "universal_anisotropy": [16.157], "volume": [34.11391]}