{"includesElement": ["", "Ni", "Ta"], "includesElement___series_id": [8], "includesElement__abundance_crust": [84.0, 2.0], "includesElement__atomic_number": [28, 73], "includesElement__atomic_radius": [135.0, 145.0], "includesElement__atomic_radius_rahm": [229.0, 258.0], "includesElement__atomic_volume": [6.6, 10.9], "includesElement__atomic_weight": [58.6934, 180.9479], "includesElement__covalent_radius_cordero": [124.0, 170.0], "includesElement__covalent_radius_pyykko": [110.0, 146.0], "includesElement__covalent_radius_pyykko_double": [101.0, 126.0], "includesElement__covalent_radius_pyykko_triple": [101.0, 119.0], "includesElement__density": [8.9, 16.4], "includesElement__dipole_polarizability": [49.0, 74.0], "includesElement__dipole_polarizability_unc": [3.0, 20.0], "includesElement__discovery_year": [1751, 1802], "includesElement__electron_affinity": [1.156, 0.322], "includesElement__electronegativity_allred-rochow": [0.0003347107, 0.0001548133], "includesElement__electronegativity_cottrell-sutton": [0.1918806, 0.1503421], "includesElement__electronegativity_ghosh": [0.1472068, 0.234581], "includesElement__electronegativity_gordy": [0.03681818, 0.02260274], "includesElement__electronegativity_mulliken": [4.397939, 3.935785], "includesElement__electronegativity_nagle": [0.588755, 0.4072985], "includesElement__electronegativity_pauling": [1.91, 1.5], "includesElement__electronegativity_sanderson": [0.937704, 0.8358832], "includesElement__en_ghosh": [0.1472068, 0.234581], "includesElement__en_pauling": [1.91, 1.5], "includesElement__evaporation_heat": [378.6, 758.0], "includesElement__fusion_heat": [17.61, 24.7], "includesElement__glawe_number": [69, 52], "includesElement__group_id": [10, 5], "includesElement__heat_of_formation": [430.1, 782.0], "includesElement__is_radioactive": [false], "includesElement__lattice_constant": [3.52, 3.31], "includesElement__mendeleev_number": [67, 49], "includesElement__molar_heat_capacity": [26.07, 25.36], "includesElement__period": [4, 6], "includesElement__pettifor_number": [67, 53], "includesElement__specific_heat_capacity": [0.444, 0.14], "includesElement__vdw_radius": [197.0, 222.0], "includesElement__vdw_radius_alvarez": [240.0, 253.0], "includesElement__vdw_radius_mm3": [222.0, 243.0], "includesElement__vdw_radius_uff": [283.4, 317.0], "includesElement__abundance_sea": [0.00056, 2e-06], "includesElement__atomic_weight_uncertainty": [0.0004, 2e-05], "includesElement__c6_gb": [393.0, 887.0], "includesElement__covalent_radius_bragg": [135.0], "includesElement__electronegativity_allen": [11.13, 7.93], "includesElement__en_allen": [11.13, 7.93], "includesElement__metallic_radius": [115.0, 134.0], "includesElement__metallic_radius_c12": [124.0, 146.0], "includesElement__thermal_conductivity": [90.9, 57.5], "includesElement__vdw_radius_batsanov": [200.0, 220.0], "includesElement__c6": [373.0], "includesElement__gas_basicity": [714.1], "includesElement__proton_affinity": [737.0], "formula": ["Ni6Ta2"], "spacegroup": ["59"], "thermalConductivity": [5.7656], "icsd": ["105391"], "band_gap": [0.0], "density": [12.33717], "density_atomic": [12.01367], "deprecated": [false], "efermi": [7.703885], "energy_above_hull": [0.003678853], "energy_per_atom": [-21.45766], "formation_energy_per_atom": [-0.3234102], "homogeneous_poisson": [0.332], "is_gap_direct": [false], "is_magnetic": [false], "is_metal": [true], "is_stable": [false], "nelements": [2], "nsites": [8], "num_magnetic_sites": [0], "num_unique_magnetic_sites": [0], "theoretical": [false], "total_magnetization": [0.0], "total_magnetization_normalized_formula_units": [0.0], "total_magnetization_normalized_vol": [0.0], "uncorrected_energy_per_atom": [-21.45766], "universal_anisotropy": [0.423], "volume": [96.10938]}