{"includesElement": ["", "Rh", "Te"], "includesElement___series_id": [8, 5], "includesElement__abundance_crust": [0.001], "includesElement__atomic_number": [45, 52], "includesElement__atomic_radius": [135.0, 140.0], "includesElement__atomic_radius_rahm": [233.0, 242.0], "includesElement__atomic_volume": [8.3, 20.5], "includesElement__atomic_weight": [102.9055, 127.6], "includesElement__covalent_radius_cordero": [142.0, 138.0], "includesElement__covalent_radius_pyykko": [125.0, 136.0], "includesElement__covalent_radius_pyykko_double": [110.0, 128.0], "includesElement__covalent_radius_pyykko_triple": [106.0, 121.0], "includesElement__density": [12.4, 6.232], "includesElement__dipole_polarizability": [66.0, 38.0], "includesElement__dipole_polarizability_unc": [10.0, 4.0], "includesElement__discovery_year": [1803, 1782], "includesElement__electron_affinity": [1.137, 1.970876], "includesElement__electronegativity_allred-rochow": [0.0002176, 0.0003757569], "includesElement__electronegativity_cottrell-sutton": [0.1649242, 0.2260596], "includesElement__electronegativity_ghosh": [0.1408379, 0.2056992], "includesElement__electronegativity_gordy": [0.0272, 0.05110294], "includesElement__electronegativity_mulliken": [4.29795, 5.490268], "includesElement__electronegativity_nagle": [0.5147142, 0.5404919], "includesElement__electronegativity_pauling": [2.28, 2.1], "includesElement__electronegativity_sanderson": [0.9761915, 0.8622506], "includesElement__en_ghosh": [0.1408379, 0.2056992], "includesElement__en_pauling": [2.28, 2.1], "includesElement__evaporation_heat": [494.0, 49.8], "includesElement__fusion_heat": [21.8, 17.91], "includesElement__glawe_number": [63, 94], "includesElement__group_id": [9, 16], "includesElement__heat_of_formation": [556.0, 196.6], "includesElement__is_radioactive": [false], "includesElement__lattice_constant": [3.8, 4.45], "includesElement__mendeleev_number": [64, 102], "includesElement__molar_heat_capacity": [24.98, 25.73], "includesElement__period": [5], "includesElement__pettifor_number": [66, 92], "includesElement__specific_heat_capacity": [0.243, 0.202], "includesElement__vdw_radius": [210.0, 206.0], "includesElement__vdw_radius_alvarez": [244.0, 199.0], "includesElement__vdw_radius_mm3": [234.0, 244.0], "includesElement__vdw_radius_uff": [292.9, 447.0], "includesElement__atomic_weight_uncertainty": [2e-05, 0.03], "includesElement__c6_gb": [708.0, 471.0], "includesElement__electronegativity_allen": [9.259, 12.76], "includesElement__en_allen": [9.259, 12.76], "includesElement__metallic_radius": [125.0, 137.0], "includesElement__metallic_radius_c12": [134.0, 160.0], "includesElement__thermal_conductivity": [150.0, 14.3], "includesElement__vdw_radius_batsanov": [200.0, 210.0], "includesElement__is_monoisotopic": [true], "includesElement__gas_basicity": [745.4], "includesElement__proton_affinity": [768.0], "includesElement__covalent_radius_bragg": [133.0], "includesElement__c6": [445.0], "includesElement__vdw_radius_dreiding": [423.0], "includesElement__vdw_radius_bondi": [206.0], "formula": ["Rh6Te4"], "spacegroup": ["63"], "thermalConductivity": [2.197], "icsd": ["650451"], "band_gap": [0.0], "density": [10.36453], "density_atomic": [18.06942], "deprecated": [false], "efermi": [8.464126], "energy_above_hull": [0.01887094], "energy_per_atom": [-24.9346], "formation_energy_per_atom": [-0.2859712], "homogeneous_poisson": [0.35], "is_gap_direct": [false], "is_magnetic": [false], "is_metal": [true], "is_stable": [false], "nelements": [2], "nsites": [10], "num_magnetic_sites": [0], "num_unique_magnetic_sites": [0], "theoretical": [false], "total_magnetization": [3.7e-06], "total_magnetization_normalized_formula_units": [1.85e-06], "total_magnetization_normalized_vol": [2.047658e-08], "uncorrected_energy_per_atom": [-24.9346], "universal_anisotropy": [0.292], "volume": [180.6942]}