{"includesElement": ["", "U", "B"], "includesElement___series_id": [10, 5], "includesElement__abundance_crust": [2.7, 10.0], "includesElement__atomic_number": [92, 5], "includesElement__atomic_radius": [175.0, 85.0], "includesElement__atomic_radius_rahm": [283.0, 205.0], "includesElement__atomic_volume": [12.5, 4.6], "includesElement__atomic_weight": [238.0289, 10.81], "includesElement__covalent_radius_cordero": [196.0, 84.0], "includesElement__covalent_radius_pyykko": [170.0, 85.0], "includesElement__covalent_radius_pyykko_double": [134.0, 78.0], "includesElement__covalent_radius_pyykko_triple": [118.0, 73.0], "includesElement__density": [19.1, 2.34], "includesElement__dipole_polarizability": [129.0, 20.5], "includesElement__dipole_polarizability_unc": [17.0, 0.1], "includesElement__discovery_year": [1789, 1808], "includesElement__electronegativity_allred-rochow": [0.0001038062, 0.0003598616], "includesElement__electronegativity_cottrell-sutton": [0.1328422, 0.1748949], "includesElement__electronegativity_ghosh": [0.13207, 0.184886], "includesElement__electronegativity_gordy": [0.01764706, 0.03058824], "includesElement__electronegativity_mulliken": [3.097025, 4.288871], "includesElement__electronegativity_nagle": [0.3596283, 0.5269739], "includesElement__electronegativity_pauling": [1.7, 2.04], "includesElement__electronegativity_sanderson": [0.618118, 0.2546274], "includesElement__en_ghosh": [0.13207, 0.184886], "includesElement__en_pauling": [1.7, 2.04], "includesElement__evaporation_heat": [417.0, 504.5], "includesElement__fusion_heat": [12.6, 23.6], "includesElement__glawe_number": [36, 86], "includesElement__heat_of_formation": [533.0, 565.0], "includesElement__is_radioactive": [true, false], "includesElement__lattice_constant": [2.85, 8.73], "includesElement__mendeleev_number": [20, 81], "includesElement__molar_heat_capacity": [27.665, 11.087], "includesElement__period": [7, 2], "includesElement__pettifor_number": [45, 86], "includesElement__specific_heat_capacity": [0.116, 1.026], "includesElement__vdw_radius": [241.0, 192.0], "includesElement__vdw_radius_alvarez": [271.0, 191.0], "includesElement__vdw_radius_mm3": [252.0, 215.0], "includesElement__vdw_radius_uff": [339.5, 408.3], "includesElement__abundance_sea": [0.0032, 4.44], "includesElement__atomic_weight_uncertainty": [3e-05], "includesElement__thermal_conductivity": [27.5, 27.4], "includesElement__vdw_radius_batsanov": [230.0, 180.0], "includesElement__gas_basicity": [973.2], "includesElement__proton_affinity": [995.2], "includesElement__electron_affinity": [0.279723], "includesElement__group_id": [13], "includesElement__c6_gb": [99.2], "includesElement__electronegativity_allen": [12.13], "includesElement__en_allen": [12.13], "includesElement__metallic_radius": [80.0], "includesElement__metallic_radius_c12": [98.0], "includesElement__c6": [99.5], "includesElement__vdw_radius_dreiding": [402.0], "includesElement__vdw_radius_truhlar": [192.0], "formula": ["B12U1"], "spacegroup": ["225"], "thermalConductivity": [32.4242], "icsd": ["23862"], "band_gap": [0.0], "density": [5.935085], "density_atomic": [7.914881], "deprecated": [false], "efermi": [7.884696], "energy_above_hull": [0.0], "energy_per_atom": [-13.21194], "formation_energy_per_atom": [-0.2813075], "is_gap_direct": [false], "is_magnetic": [false], "is_metal": [true], "is_stable": [true], "nelements": [2], "nsites": [13], "num_magnetic_sites": [0], "num_unique_magnetic_sites": [0], "theoretical": [false], "total_magnetization": [0.0], "total_magnetization_normalized_formula_units": [0.0], "total_magnetization_normalized_vol": [0.0], "uncorrected_energy_per_atom": [-13.21194], "volume": [102.8935], "equilibrium_reaction_energy_per_atom": [-0.08437393]}