{"includesElement": ["", "Si", "Cr"], "includesElement___series_id": [5, 8], "includesElement__abundance_crust": [282000.0, 102.0], "includesElement__atomic_number": [14, 24], "includesElement__atomic_radius": [110.0, 140.0], "includesElement__atomic_radius_rahm": [232.0, 233.0], "includesElement__atomic_volume": [12.1, 7.23], "includesElement__atomic_weight": [28.085, 51.9961], "includesElement__covalent_radius_cordero": [111.0, 139.0], "includesElement__covalent_radius_pyykko": [116.0, 122.0], "includesElement__covalent_radius_pyykko_double": [107.0, 111.0], "includesElement__covalent_radius_pyykko_triple": [102.0, 103.0], "includesElement__density": [2.3296, 7.15], "includesElement__dipole_polarizability": [37.3, 83.0], "includesElement__dipole_polarizability_unc": [0.7, 12.0], "includesElement__discovery_year": [1824, 1797], "includesElement__electron_affinity": [1.389521, 0.666], "includesElement__electronegativity_allred-rochow": [0.0003084126, 0.0001981994], "includesElement__electronegativity_cottrell-sutton": [0.1891451, 0.1555003], "includesElement__electronegativity_ghosh": [0.178503, 0.1313053], "includesElement__electronegativity_gordy": [0.03577586, 0.02418033], "includesElement__electronegativity_mulliken": [4.770602, 3.716255], "includesElement__electronegativity_nagle": [0.4750986, 0.4165729], "includesElement__electronegativity_pauling": [1.9, 1.66], "includesElement__electronegativity_sanderson": [0.3468158, 0.6017723], "includesElement__en_ghosh": [0.178503, 0.1313053], "includesElement__en_pauling": [1.9, 1.66], "includesElement__evaporation_heat": [383.0, 342.0], "includesElement__fusion_heat": [50.6, 21.0], "includesElement__glawe_number": [85, 55], "includesElement__group_id": [14, 6], "includesElement__heat_of_formation": [450.0, 397.48], "includesElement__is_radioactive": [false], "includesElement__lattice_constant": [5.43, 2.88], "includesElement__mendeleev_number": [88, 51], "includesElement__molar_heat_capacity": [19.99, 23.35], "includesElement__period": [3, 4], "includesElement__pettifor_number": [85, 57], "includesElement__specific_heat_capacity": [0.712, 0.449], "includesElement__vdw_radius": [210.0, 206.0], "includesElement__vdw_radius_alvarez": [219.0, 245.0], "includesElement__vdw_radius_mm3": [229.0, 225.0], "includesElement__vdw_radius_uff": [429.5, 302.3], "includesElement__abundance_sea": [2.2, 0.0003], "includesElement__c6_gb": [308.0, 709.0], "includesElement__covalent_radius_bragg": [117.0, 140.0], "includesElement__electronegativity_allen": [11.33, 9.77], "includesElement__en_allen": [11.33, 9.77], "includesElement__metallic_radius": [117.0, 119.0], "includesElement__metallic_radius_c12": [138.0, 128.0], "includesElement__thermal_conductivity": [149.0, 93.9], "includesElement__vdw_radius_batsanov": [210.0, 205.0], "includesElement__c6": [305.0, 602.0], "includesElement__vdw_radius_dreiding": [427.0], "includesElement__gas_basicity": [814.1, 768.4], "includesElement__proton_affinity": [837.0, 791.3], "includesElement__vdw_radius_bondi": [210.0], "includesElement__atomic_weight_uncertainty": [0.0006], "formula": ["Cr6Si2"], "spacegroup": ["223"], "thermalConductivity": [8.30376], "icsd": ["16835"], "band_gap": [0.0], "density": [6.793237], "density_atomic": [11.24875], "deprecated": [false], "efermi": [8.580816], "energy_above_hull": [0.0], "energy_per_atom": [-13.64078], "formation_energy_per_atom": [-0.1423323], "homogeneous_poisson": [0.241], "is_gap_direct": [false], "is_magnetic": [false], "is_metal": [true], "is_stable": [true], "nelements": [2], "nsites": [8], "num_magnetic_sites": [0], "num_unique_magnetic_sites": [0], "theoretical": [false], "total_magnetization": [3e-07], "total_magnetization_normalized_formula_units": [1.5e-07], "total_magnetization_normalized_vol": [3.333703e-09], "uncorrected_energy_per_atom": [-13.64078], "universal_anisotropy": [0.062], "volume": [89.99001], "equilibrium_reaction_energy_per_atom": [-0.04595658]}