{"includesElement": ["", "Ba", "Al"], "includesElement___series_id": [4, 7], "includesElement__abundance_crust": [425.0, 82300.0], "includesElement__atomic_number": [56, 13], "includesElement__atomic_radius": [215.0, 125.0], "includesElement__atomic_radius_rahm": [293.0, 239.0], "includesElement__atomic_volume": [39.0, 10.0], "includesElement__atomic_weight": [137.327, 26.98154], "includesElement__covalent_radius_cordero": [215.0, 121.0], "includesElement__covalent_radius_pyykko": [196.0, 126.0], "includesElement__covalent_radius_pyykko_double": [161.0, 113.0], "includesElement__covalent_radius_pyykko_triple": [149.0, 111.0], "includesElement__density": [3.62, 2.7], "includesElement__dipole_polarizability": [272.0, 57.8], "includesElement__dipole_polarizability_unc": [10.0, 1.0], "includesElement__discovery_year": [1808, 1825], "includesElement__electron_affinity": [0.14462, 0.43283], "includesElement__electronegativity_allred-rochow": [7.418784e-05, 0.0002204586], "includesElement__electronegativity_cottrell-sutton": [0.1205853, 0.1666667], "includesElement__electronegativity_ghosh": [0.1586786, 0.150078], "includesElement__electronegativity_gordy": [0.01454082, 0.02777778], "includesElement__electronegativity_mulliken": [2.678142, 3.209299], "includesElement__electronegativity_nagle": [0.1944556, 0.3730192], "includesElement__electronegativity_pauling": [0.89, 1.61], "includesElement__electronegativity_sanderson": [0.3032951, 0.2360927], "includesElement__en_ghosh": [0.1586786, 0.150078], "includesElement__en_pauling": [0.89, 1.61], "includesElement__evaporation_heat": [142.0, 284.1], "includesElement__fusion_heat": [7.66, 10.75], "includesElement__glawe_number": [14, 78], "includesElement__group_id": [2, 13], "includesElement__heat_of_formation": [179.1, 330.9], "includesElement__is_radioactive": [false], "includesElement__lattice_constant": [5.02, 4.05], "includesElement__mendeleev_number": [9, 82], "includesElement__molar_heat_capacity": [28.07, 24.2], "includesElement__period": [6, 3], "includesElement__pettifor_number": [14, 80], "includesElement__specific_heat_capacity": [0.204, 0.897], "includesElement__vdw_radius": [268.0, 184.0], "includesElement__vdw_radius_alvarez": [303.0, 225.0], "includesElement__vdw_radius_mm3": [307.0, 236.0], "includesElement__vdw_radius_uff": [370.3, 449.9], "includesElement__abundance_sea": [0.013, 0.002], "includesElement__atomic_weight_uncertainty": [0.007, 7e-07], "includesElement__c6_gb": [5540.0, 520.0], "includesElement__covalent_radius_bragg": [210.0, 135.0], "includesElement__electronegativity_allen": [5.211, 9.539], "includesElement__en_allen": [5.211, 9.539], "includesElement__metallic_radius": [198.0, 125.0], "includesElement__metallic_radius_c12": [222.0, 143.0], "includesElement__vdw_radius_batsanov": [270.0, 210.0], "includesElement__vdw_radius_truhlar": [268.0, 184.0], "includesElement__thermal_conductivity": [237.0], "includesElement__c6": [528.0], "includesElement__is_monoisotopic": [true], "includesElement__vdw_radius_dreiding": [439.0], "formula": ["Al4Ba1"], "spacegroup": ["139"], "thermalConductivity": [4.98715], "icsd": ["57513"], "band_gap": [0.0], "density": [3.44467], "density_atomic": [23.64537], "deprecated": [false], "efermi": [5.128086], "energy_above_hull": [0.0], "energy_per_atom": [-3.621437], "formation_energy_per_atom": [-0.2411815], "homogeneous_poisson": [0.256], "is_gap_direct": [false], "is_magnetic": [false], "is_metal": [true], "is_stable": [true], "nelements": [2], "nsites": [5], "num_magnetic_sites": [0], "num_unique_magnetic_sites": [0], "theoretical": [false], "total_magnetization": [1e-07], "total_magnetization_normalized_formula_units": [1e-07], "total_magnetization_normalized_vol": [8.458316e-10], "uncorrected_energy_per_atom": [-10.94088], "universal_anisotropy": [0.127], "volume": [118.2268], "equilibrium_reaction_energy_per_atom": [-0.09981771]}