{"includesElement": ["", "Pt", "Yb"], "includesElement___series_id": [8, 9], "includesElement__abundance_crust": [0.005, 3.2], "includesElement__atomic_number": [78, 70], "includesElement__atomic_radius": [135.0, 175.0], "includesElement__atomic_radius_rahm": [230.0, 277.0], "includesElement__atomic_volume": [9.1, 24.8], "includesElement__atomic_weight": [195.084, 173.045], "includesElement__covalent_radius_cordero": [136.0, 187.0], "includesElement__covalent_radius_pyykko": [123.0, 170.0], "includesElement__covalent_radius_pyykko_double": [112.0, 129.0], "includesElement__covalent_radius_pyykko_triple": [110.0], "includesElement__density": [21.5, 6.9], "includesElement__dipole_polarizability": [48.0, 139.0], "includesElement__dipole_polarizability_unc": [4.0, 6.0], "includesElement__discovery_year": [1735, 1878], "includesElement__electron_affinity": [2.128, -0.02], "includesElement__electronegativity_allred-rochow": [0.0002346487, 9.861592e-05], "includesElement__electronegativity_cottrell-sutton": [0.1698876, 0.1294786], "includesElement__electronegativity_ghosh": [0.25691, 0.22119], "includesElement__electronegativity_gordy": [0.02886179, 0.01676471], "includesElement__electronegativity_mulliken": [5.543415, 3.11708], "includesElement__electronegativity_nagle": [0.5928156, 0.4864465], "includesElement__electronegativity_pauling": [2.2], "includesElement__electronegativity_sanderson": [1.45101, 0.5176678], "includesElement__en_ghosh": [0.25691, 0.22119], "includesElement__en_pauling": [2.2], "includesElement__evaporation_heat": [470.0, 159.0], "includesElement__fusion_heat": [21.76, 3.35], "includesElement__glawe_number": [64, 18], "includesElement__group_id": [10], "includesElement__heat_of_formation": [565.7, 155.6], "includesElement__is_radioactive": [false], "includesElement__lattice_constant": [3.92, 5.49], "includesElement__mendeleev_number": [69, 39], "includesElement__molar_heat_capacity": [25.86, 26.74], "includesElement__period": [6], "includesElement__pettifor_number": [68, 17], "includesElement__specific_heat_capacity": [0.133, 0.155], "includesElement__vdw_radius": [213.0, 226.0], "includesElement__vdw_radius_alvarez": [229.0, 280.0], "includesElement__vdw_radius_mm3": [239.0, 279.0], "includesElement__vdw_radius_uff": [275.4, 335.5], "includesElement__atomic_weight_uncertainty": [0.009, 0.01], "includesElement__c6_gb": [470.0, 1910.0], "includesElement__electronegativity_allen": [10.16], "includesElement__en_allen": [10.16], "includesElement__metallic_radius": [130.0], "includesElement__metallic_radius_c12": [139.0], "includesElement__thermal_conductivity": [71.6], "includesElement__vdw_radius_batsanov": [205.0], "includesElement__abundance_sea": [8.2e-07], "formula": ["Pt3Yb1"], "spacegroup": ["221"], "thermalConductivity": [2.40977], "icsd": ["105849"], "band_gap": [0.0], "density": [18.68524], "density_atomic": [16.84717], "deprecated": [false], "efermi": [5.780307], "homogeneous_poisson": [0.312], "is_gap_direct": [false], "is_magnetic": [false], "is_metal": [true], "is_stable": [false], "nelements": [2], "nsites": [4], "num_magnetic_sites": [0], "num_unique_magnetic_sites": [0], "theoretical": [false], "total_magnetization": [0.0001978], "total_magnetization_normalized_formula_units": [0.0001978], "total_magnetization_normalized_vol": [2.935211e-06], "universal_anisotropy": [0.359], "volume": [67.38868]}