{"includesElement": ["", "Zn", "O"], "includesElement___series_id": [8, 1], "includesElement__abundance_crust": [70.0, 461000.0], "includesElement__atomic_number": [30, 8], "includesElement__atomic_radius": [135.0, 60.0], "includesElement__atomic_radius_rahm": [222.0, 171.0], "includesElement__atomic_volume": [9.2, 14.0], "includesElement__atomic_weight": [65.38, 15.999], "includesElement__covalent_radius_cordero": [122.0, 66.0], "includesElement__covalent_radius_pyykko": [118.0, 63.0], "includesElement__covalent_radius_pyykko_double": [120.0, 57.0], "includesElement__density": [7.134, 0.001308], "includesElement__dipole_polarizability": [38.67, 5.3], "includesElement__dipole_polarizability_unc": [0.3, 0.2], "includesElement__electronegativity_allred-rochow": [0.0003124102, 0.001146384], "includesElement__electronegativity_cottrell-sutton": [0.1920011, 0.2687419], "includesElement__electronegativity_ghosh": [0.1551518, 0.304575], "includesElement__electronegativity_gordy": [0.03686441, 0.07222222], "includesElement__electronegativity_mulliken": [4.6971, 7.539584], "includesElement__electronegativity_nagle": [0.6770213, 1.042218], "includesElement__electronegativity_pauling": [1.65, 3.44], "includesElement__electronegativity_sanderson": [0.8100877, 0.9416494], "includesElement__en_ghosh": [0.1551518, 0.304575], "includesElement__en_pauling": [1.65, 3.44], "includesElement__evaporation_heat": [114.8], "includesElement__fusion_heat": [7.28], "includesElement__glawe_number": [74, 97], "includesElement__group_id": [12, 16], "includesElement__heat_of_formation": [130.4, 249.229], "includesElement__is_radioactive": [false], "includesElement__lattice_constant": [2.66, 6.83], "includesElement__mendeleev_number": [77, 99], "includesElement__molar_heat_capacity": [25.39, 29.378], "includesElement__period": [4, 2], "includesElement__pettifor_number": [76, 101], "includesElement__specific_heat_capacity": [0.388, 0.918], "includesElement__vdw_radius": [201.0, 152.0], "includesElement__vdw_radius_alvarez": [239.0, 150.0], "includesElement__vdw_radius_mm3": [229.0, 182.0], "includesElement__vdw_radius_uff": [276.3, 350.0], "includesElement__abundance_sea": [0.0049, 857000.0], "includesElement__atomic_weight_uncertainty": [0.02], "includesElement__c6_gb": [276.0, 16.7], "includesElement__covalent_radius_bragg": [132.0, 65.0], "includesElement__electronegativity_allen": [9.395, 21.36], "includesElement__en_allen": [9.395, 21.36], "includesElement__metallic_radius": [121.0], "includesElement__metallic_radius_c12": [134.0], "includesElement__thermal_conductivity": [116.0, 0.027], "includesElement__vdw_radius_batsanov": [210.0, 155.0], "includesElement__c6": [284.0, 15.6], "includesElement__gas_basicity": [586.0, 459.6], "includesElement__proton_affinity": [608.6, 485.2], "includesElement__covalent_radius_pyykko_triple": [53.0], "includesElement__discovery_year": [1774], "includesElement__electron_affinity": [1.461113], "includesElement__vdw_radius_dreiding": [340.46], "includesElement__vdw_radius_bondi": [152.0], "includesElement__vdw_radius_rt": [158.0], "formula": ["O2Zn2"], "spacegroup": ["186"], "thermalConductivity": [7.37973], "icsd": ["154486"], "band_gap": [0.7227], "density": [5.704218], "density_atomic": [11.84929], "deprecated": [false], "efermi": [0.8923141], "energy_above_hull": [0.0], "energy_per_atom": [-9.083072], "formation_energy_per_atom": [-1.647445], "homogeneous_poisson": [0.349], "is_gap_direct": [true], "is_magnetic": [false], "is_metal": [false], "is_stable": [true], "nelements": [2], "nsites": [4], "num_magnetic_sites": [0], "num_unique_magnetic_sites": [0], "theoretical": [false], "total_magnetization": [0.0], "total_magnetization_normalized_formula_units": [0.0], "total_magnetization_normalized_vol": [0.0], "uncorrected_energy_per_atom": [-9.083072], "universal_anisotropy": [0.137], "volume": [47.39715], "cbm": [1.5627], "e_electronic": [5.390361], "e_ionic": [5.444937], "e_total": [10.8353], "equilibrium_reaction_energy_per_atom": [-1.647445], "n": [2.321715], "vbm": [0.84], "e_ij_max": [1.285616]}