{"includesElement": ["", "Hg", "Ba"], "includesElement___series_id": [8, 4], "includesElement__abundance_crust": [0.085, 425.0], "includesElement__atomic_number": [80, 56], "includesElement__atomic_radius": [150.0, 215.0], "includesElement__atomic_radius_rahm": [229.0, 293.0], "includesElement__atomic_volume": [14.8, 39.0], "includesElement__atomic_weight": [200.592, 137.327], "includesElement__covalent_radius_cordero": [132.0, 215.0], "includesElement__covalent_radius_pyykko": [133.0, 196.0], "includesElement__covalent_radius_pyykko_double": [142.0, 161.0], "includesElement__density": [13.5336, 3.62], "includesElement__dipole_polarizability": [33.91, 272.0], "includesElement__dipole_polarizability_unc": [0.34, 10.0], "includesElement__electronegativity_allred-rochow": [0.0002459155, 7.418784e-05], "includesElement__electronegativity_cottrell-sutton": [0.1808501, 0.1205853], "includesElement__electronegativity_ghosh": [0.169, 0.1586786], "includesElement__electronegativity_gordy": [0.03270677, 0.01454082], "includesElement__electronegativity_mulliken": [5.218752, 2.678142], "includesElement__electronegativity_nagle": [0.7073231, 0.1944556], "includesElement__electronegativity_pauling": [1.9, 0.89], "includesElement__electronegativity_sanderson": [1.164789, 0.3032951], "includesElement__en_ghosh": [0.169, 0.1586786], "includesElement__en_pauling": [1.9, 0.89], "includesElement__evaporation_heat": [58.5, 142.0], "includesElement__fusion_heat": [2.295, 7.66], "includesElement__glawe_number": [76, 14], "includesElement__group_id": [12, 2], "includesElement__heat_of_formation": [61.38, 179.1], "includesElement__is_radioactive": [false], "includesElement__lattice_constant": [2.99, 5.02], "includesElement__mendeleev_number": [79, 9], "includesElement__molar_heat_capacity": [27.983, 28.07], "includesElement__period": [6], "includesElement__pettifor_number": [74, 14], "includesElement__specific_heat_capacity": [0.14, 0.204], "includesElement__vdw_radius": [223.0, 268.0], "includesElement__vdw_radius_alvarez": [245.0, 303.0], "includesElement__vdw_radius_mm3": [253.0, 307.0], "includesElement__vdw_radius_uff": [270.5, 370.3], "includesElement__abundance_sea": [3e-05, 0.013], "includesElement__atomic_weight_uncertainty": [0.003, 0.007], "includesElement__c6_gb": [268.0, 5540.0], "includesElement__electronegativity_allen": [10.44, 5.211], "includesElement__en_allen": [10.44, 5.211], "includesElement__metallic_radius": [139.0, 198.0], "includesElement__metallic_radius_c12": [151.0, 222.0], "includesElement__thermal_conductivity": [8.3], "includesElement__vdw_radius_batsanov": [205.0, 270.0], "includesElement__covalent_radius_pyykko_triple": [149.0], "includesElement__discovery_year": [1808], "includesElement__electron_affinity": [0.14462], "includesElement__covalent_radius_bragg": [210.0], "includesElement__vdw_radius_truhlar": [268.0], "formula": ["Ba2Hg1"], "spacegroup": ["139"], "thermalConductivity": [1.2922], "icsd": ["30084"], "band_gap": [0.0], "density": [5.747394], "density_atomic": [45.76922], "deprecated": [false], "efermi": [1.980795], "energy_above_hull": [0.0], "energy_per_atom": [-1.764534], "formation_energy_per_atom": [-0.3819936], "homogeneous_poisson": [0.244], "is_gap_direct": [false], "is_magnetic": [false], "is_metal": [true], "is_stable": [true], "nelements": [2], "nsites": [3], "num_magnetic_sites": [0], "num_unique_magnetic_sites": [0], "theoretical": [false], "total_magnetization": [0.0005436], "total_magnetization_normalized_formula_units": [0.0005436], "total_magnetization_normalized_vol": [3.958993e-06], "uncorrected_energy_per_atom": [-34.50056], "universal_anisotropy": [0.097], "volume": [137.3077], "equilibrium_reaction_energy_per_atom": [-0.02863679]}