{"includesElement": ["", "Li", "Sr"], "includesElement___series_id": [3, 4], "includesElement__abundance_crust": [20.0, 370.0], "includesElement__atomic_number": [3, 38], "includesElement__atomic_radius": [145.0, 200.0], "includesElement__atomic_radius_rahm": [220.0, 279.0], "includesElement__atomic_volume": [13.1, 33.7], "includesElement__atomic_weight": [6.94, 87.62], "includesElement__covalent_radius_cordero": [128.0, 195.0], "includesElement__covalent_radius_pyykko": [133.0, 185.0], "includesElement__covalent_radius_pyykko_double": [124.0, 157.0], "includesElement__density": [0.534, 2.64], "includesElement__dipole_polarizability": [164.1125, 197.2], "includesElement__dipole_polarizability_unc": [0.0005, 0.2], "includesElement__discovery_year": [1817, 1790], "includesElement__electron_affinity": [0.618049, 0.048], "includesElement__electronegativity_allred-rochow": [7.3492e-05, 8.327246e-05], "includesElement__electronegativity_cottrell-sutton": [0.09886575, 0.1241185], "includesElement__electronegativity_ghosh": [0.105093, 0.1185082], "includesElement__electronegativity_gordy": [0.009774436, 0.01540541], "includesElement__electronegativity_mulliken": [3.004882, 2.871434], "includesElement__electronegativity_nagle": [0.1826499, 0.2164584], "includesElement__electronegativity_pauling": [0.98, 0.95], "includesElement__electronegativity_sanderson": [0.04886793, 0.2631786], "includesElement__en_ghosh": [0.105093, 0.1185082], "includesElement__en_pauling": [0.98, 0.95], "includesElement__evaporation_heat": [148.0, 144.0], "includesElement__fusion_heat": [2.89, 9.2], "includesElement__glawe_number": [12, 15], "includesElement__group_id": [1, 2], "includesElement__heat_of_formation": [159.3, 164.0], "includesElement__is_radioactive": [false], "includesElement__lattice_constant": [3.49, 6.08], "includesElement__mendeleev_number": [1, 8], "includesElement__molar_heat_capacity": [24.86, 26.79], "includesElement__period": [2, 5], "includesElement__pettifor_number": [12, 15], "includesElement__specific_heat_capacity": [3.582, 0.306], "includesElement__vdw_radius": [182.0, 249.0], "includesElement__vdw_radius_alvarez": [212.0, 284.0], "includesElement__vdw_radius_mm3": [255.0, 300.0], "includesElement__vdw_radius_uff": [245.1, 364.1], "includesElement__abundance_sea": [0.18, 7.9], "includesElement__c6_gb": [1410.0, 3230.0], "includesElement__covalent_radius_bragg": [150.0, 195.0], "includesElement__electronegativity_allen": [5.392, 5.695], "includesElement__en_allen": [5.392, 5.695], "includesElement__metallic_radius": [123.0, 191.0], "includesElement__metallic_radius_c12": [155.0, 215.0], "includesElement__thermal_conductivity": [84.8], "includesElement__vdw_radius_batsanov": [220.0, 255.0], "includesElement__c6": [1392.0, 3175.0], "includesElement__vdw_radius_bondi": [181.0], "includesElement__covalent_radius_pyykko_triple": [139.0], "includesElement__atomic_weight_uncertainty": [0.01], "includesElement__vdw_radius_truhlar": [249.0], "formula": ["Li23Sr6"], "spacegroup": ["225"], "thermalConductivity": [0.511623], "icsd": ["15702"], "band_gap": [0.0], "density": [1.39132], "density_atomic": [28.20622], "deprecated": [false], "efermi": [0.4576417], "energy_above_hull": [0.006392339], "energy_per_atom": [-1.859131], "formation_energy_per_atom": [0.005000234], "is_gap_direct": [false], "is_magnetic": [false], "is_metal": [true], "is_stable": [false], "nelements": [2], "nsites": [29], "num_magnetic_sites": [0], "num_unique_magnetic_sites": [0], "theoretical": [false], "total_magnetization": [0.0004595], "total_magnetization_normalized_formula_units": [0.0004595], "total_magnetization_normalized_vol": [5.617495e-07], "uncorrected_energy_per_atom": [-5.020714], "volume": [817.9803], "cbm": [0.3397], "vbm": [0.5277]}