{"includesElement": ["", "Ba", "In"], "includesElement___series_id": [4, 7], "includesElement__abundance_crust": [425.0, 0.25], "includesElement__atomic_number": [56, 49], "includesElement__atomic_radius": [215.0, 155.0], "includesElement__atomic_radius_rahm": [293.0, 246.0], "includesElement__atomic_volume": [39.0, 15.7], "includesElement__atomic_weight": [137.327, 114.818], "includesElement__covalent_radius_cordero": [215.0, 142.0], "includesElement__covalent_radius_pyykko": [196.0, 142.0], "includesElement__covalent_radius_pyykko_double": [161.0, 136.0], "includesElement__covalent_radius_pyykko_triple": [149.0, 146.0], "includesElement__density": [3.62, 7.31], "includesElement__dipole_polarizability": [272.0, 65.0], "includesElement__dipole_polarizability_unc": [10.0, 4.0], "includesElement__discovery_year": [1808, 1863], "includesElement__electron_affinity": [0.14462, 0.3], "includesElement__electronegativity_allred-rochow": [7.418784e-05, 0.0002479667], "includesElement__electronegativity_cottrell-sutton": [0.1205853, 0.1876467], "includesElement__electronegativity_ghosh": [0.1586786, 0.16423], "includesElement__electronegativity_gordy": [0.01454082, 0.03521127], "includesElement__electronegativity_mulliken": [2.678142, 3.043178], "includesElement__electronegativity_nagle": [0.1944556, 0.3587038], "includesElement__electronegativity_pauling": [0.89, 1.78], "includesElement__electronegativity_sanderson": [0.3032951, 0.7172747], "includesElement__en_ghosh": [0.1586786, 0.16423], "includesElement__en_pauling": [0.89, 1.78], "includesElement__evaporation_heat": [142.0, 225.1], "includesElement__fusion_heat": [7.66, 3.24], "includesElement__glawe_number": [14, 80], "includesElement__group_id": [2, 13], "includesElement__heat_of_formation": [179.1, 243.0], "includesElement__is_radioactive": [false], "includesElement__lattice_constant": [5.02, 4.59], "includesElement__mendeleev_number": [9, 84], "includesElement__molar_heat_capacity": [28.07, 26.74], "includesElement__period": [6, 5], "includesElement__pettifor_number": [14, 79], "includesElement__specific_heat_capacity": [0.204, 0.233], "includesElement__vdw_radius": [268.0, 193.0], "includesElement__vdw_radius_alvarez": [303.0, 243.0], "includesElement__vdw_radius_mm3": [307.0, 264.0], "includesElement__vdw_radius_uff": [370.3, 446.3], "includesElement__abundance_sea": [0.013, 0.02], "includesElement__atomic_weight_uncertainty": [0.007, 0.001], "includesElement__c6_gb": [5540.0, 643.0], "includesElement__covalent_radius_bragg": [210.0], "includesElement__electronegativity_allen": [5.211, 9.793], "includesElement__en_allen": [5.211, 9.793], "includesElement__metallic_radius": [198.0, 142.0], "includesElement__metallic_radius_c12": [222.0, 158.0], "includesElement__vdw_radius_batsanov": [270.0, 220.0], "includesElement__vdw_radius_truhlar": [268.0], "includesElement__thermal_conductivity": [81.8], "includesElement__c6": [779.0], "includesElement__vdw_radius_dreiding": [459.0], "includesElement__vdw_radius_bondi": [193.0], "formula": ["Ba1In4"], "spacegroup": ["139"], "thermalConductivity": [1.22572], "icsd": ["414230"], "band_gap": [0.0], "density": [6.490194], "density_atomic": [30.52839], "deprecated": [false], "efermi": [5.827581], "energy_above_hull": [0.0], "energy_per_atom": [-2.938039], "formation_energy_per_atom": [-0.3469051], "homogeneous_poisson": [0.287], "is_gap_direct": [false], "is_magnetic": [false], "is_metal": [true], "is_stable": [true], "nelements": [2], "nsites": [5], "num_magnetic_sites": [0], "num_unique_magnetic_sites": [0], "theoretical": [false], "total_magnetization": [3e-07], "total_magnetization_normalized_formula_units": [3e-07], "total_magnetization_normalized_vol": [1.965384e-09], "uncorrected_energy_per_atom": [-23.85403], "universal_anisotropy": [0.599], "volume": [152.642], "equilibrium_reaction_energy_per_atom": [-0.06074882]}