{"includesElement": ["", "Al", "N"], "includesElement___series_id": [7, 1], "includesElement__abundance_crust": [82300.0, 19.0], "includesElement__atomic_number": [13, 7], "includesElement__atomic_radius": [125.0, 65.0], "includesElement__atomic_radius_rahm": [239.0, 179.0], "includesElement__atomic_volume": [10.0, 17.3], "includesElement__atomic_weight": [26.98154, 14.007], "includesElement__covalent_radius_cordero": [121.0, 71.0], "includesElement__covalent_radius_pyykko": [126.0, 71.0], "includesElement__covalent_radius_pyykko_double": [113.0, 60.0], "includesElement__covalent_radius_pyykko_triple": [111.0, 54.0], "includesElement__density": [2.7, 0.001145], "includesElement__dipole_polarizability": [57.8, 7.4], "includesElement__dipole_polarizability_unc": [1.0, 0.2], "includesElement__discovery_year": [1825, 1772], "includesElement__electron_affinity": [0.43283, -1.4], "includesElement__electronegativity_allred-rochow": [0.0002204586, 0.000773656], "includesElement__electronegativity_cottrell-sutton": [0.1666667, 0.2343706], "includesElement__electronegativity_ghosh": [0.150078, 0.26493], "includesElement__electronegativity_gordy": [0.02777778, 0.05492958], "includesElement__electronegativity_mulliken": [3.209299, 6.567065], "includesElement__electronegativity_nagle": [0.3730192, 0.8774979], "includesElement__electronegativity_pauling": [1.61, 3.04], "includesElement__electronegativity_sanderson": [0.2360927, 0.577482], "includesElement__en_ghosh": [0.150078, 0.26493], "includesElement__en_pauling": [1.61, 3.04], "includesElement__evaporation_heat": [284.1], "includesElement__fusion_heat": [10.75], "includesElement__glawe_number": [78, 88], "includesElement__group_id": [13, 15], "includesElement__heat_of_formation": [330.9, 472.44], "includesElement__is_radioactive": [false], "includesElement__lattice_constant": [4.05, 4.039], "includesElement__mendeleev_number": [82, 93], "includesElement__molar_heat_capacity": [24.2, 29.124], "includesElement__period": [3, 2], "includesElement__pettifor_number": [80, 100], "includesElement__specific_heat_capacity": [0.897, 1.04], "includesElement__vdw_radius": [184.0, 155.0], "includesElement__vdw_radius_alvarez": [225.0, 166.0], "includesElement__vdw_radius_mm3": [236.0, 193.0], "includesElement__vdw_radius_uff": [449.9, 366.0], "includesElement__abundance_sea": [0.002, 0.5], "includesElement__atomic_weight_uncertainty": [7e-07], "includesElement__c6_gb": [520.0, 25.7], "includesElement__covalent_radius_bragg": [135.0, 65.0], "includesElement__electronegativity_allen": [9.539, 18.13], "includesElement__en_allen": [9.539, 18.13], "includesElement__metallic_radius": [125.0], "includesElement__metallic_radius_c12": [143.0, 53.0], "includesElement__thermal_conductivity": [237.0, 0.026], "includesElement__vdw_radius_batsanov": [210.0, 160.0], "includesElement__c6": [528.0, 24.2], "includesElement__is_monoisotopic": [true], "includesElement__vdw_radius_dreiding": [439.0, 366.21], "includesElement__vdw_radius_truhlar": [184.0], "includesElement__gas_basicity": [318.7], "includesElement__proton_affinity": [342.2], "includesElement__vdw_radius_bondi": [155.0], "includesElement__vdw_radius_rt": [164.0], "formula": ["Al2N2"], "spacegroup": ["194"], "thermalConductivity": [37.5222], "icsd": ["163950"], "band_gap": [3.2687], "density": [3.421648], "density_atomic": [9.945875], "deprecated": [false], "efermi": [8.036715], "energy_above_hull": [0.1152902], "energy_per_atom": [-9.494806], "formation_energy_per_atom": [-1.564382], "homogeneous_poisson": [0.251], "is_gap_direct": [true], "is_magnetic": [false], "is_metal": [false], "is_stable": [false], "nelements": [2], "nsites": [4], "num_magnetic_sites": [0], "num_unique_magnetic_sites": [0], "theoretical": [true], "total_magnetization": [0.001155], "total_magnetization_normalized_formula_units": [0.0005775], "total_magnetization_normalized_vol": [2.903214e-05], "uncorrected_energy_per_atom": [-7.329642], "universal_anisotropy": [0.915], "volume": [39.7835], "cbm": [11.2199], "vbm": [7.9512]}