{"includesElement": ["", "Si", "La"], "includesElement___series_id": [5, 9], "includesElement__abundance_crust": [282000.0, 39.0], "includesElement__atomic_number": [14, 57], "includesElement__atomic_radius": [110.0, 195.0], "includesElement__atomic_radius_rahm": [232.0, 284.0], "includesElement__atomic_volume": [12.1, 22.5], "includesElement__atomic_weight": [28.085, 138.9055], "includesElement__covalent_radius_cordero": [111.0, 207.0], "includesElement__covalent_radius_pyykko": [116.0, 180.0], "includesElement__covalent_radius_pyykko_double": [107.0, 139.0], "includesElement__covalent_radius_pyykko_triple": [102.0, 139.0], "includesElement__density": [2.3296, 6.15], "includesElement__dipole_polarizability": [37.3, 215.0], "includesElement__dipole_polarizability_unc": [0.7, 20.0], "includesElement__discovery_year": [1824, 1839], "includesElement__electron_affinity": [1.389521, 0.47], "includesElement__electronegativity_allred-rochow": [0.0003084126, 9.259259e-05], "includesElement__electronegativity_cottrell-sutton": [0.1891451, 0.1290994], "includesElement__electronegativity_ghosh": [0.178503, 0.163142], "includesElement__electronegativity_gordy": [0.03577586, 0.01666667], "includesElement__electronegativity_mulliken": [4.770602, 3.02345], "includesElement__electronegativity_nagle": [0.4750986, 0.240747], "includesElement__electronegativity_pauling": [1.9, 1.1], "includesElement__electronegativity_sanderson": [0.3468158, 0.3946505], "includesElement__en_ghosh": [0.178503, 0.163142], "includesElement__en_pauling": [1.9, 1.1], "includesElement__evaporation_heat": [383.0, 402.0], "includesElement__fusion_heat": [50.6, 8.5], "includesElement__glawe_number": [85, 32], "includesElement__group_id": [14, 3], "includesElement__heat_of_formation": [450.0, 431.0], "includesElement__is_radioactive": [false], "includesElement__lattice_constant": [5.43, 3.75], "includesElement__mendeleev_number": [88, 13], "includesElement__molar_heat_capacity": [19.99, 27.11], "includesElement__period": [3, 6], "includesElement__pettifor_number": [85, 33], "includesElement__specific_heat_capacity": [0.712, 0.195], "includesElement__vdw_radius": [210.0, 243.0], "includesElement__vdw_radius_alvarez": [219.0, 298.0], "includesElement__vdw_radius_mm3": [229.0, 278.0], "includesElement__vdw_radius_uff": [429.5, 352.2], "includesElement__abundance_sea": [2.2, 3.4e-06], "includesElement__c6_gb": [308.0, 3730.0], "includesElement__covalent_radius_bragg": [117.0], "includesElement__electronegativity_allen": [11.33], "includesElement__en_allen": [11.33], "includesElement__metallic_radius": [117.0, 169.0], "includesElement__metallic_radius_c12": [138.0, 187.0], "includesElement__thermal_conductivity": [149.0, 13.4], "includesElement__vdw_radius_batsanov": [210.0, 250.0], "includesElement__c6": [305.0], "includesElement__vdw_radius_dreiding": [427.0], "includesElement__gas_basicity": [814.1, 991.9], "includesElement__proton_affinity": [837.0, 1013.0], "includesElement__vdw_radius_bondi": [210.0], "includesElement__atomic_weight_uncertainty": [7e-05], "formula": ["La4Si4"], "spacegroup": ["62"], "thermalConductivity": [6.1934], "icsd": ["14385"], "band_gap": [0.0], "density": [5.369709], "density_atomic": [25.82031], "deprecated": [false], "efermi": [8.239695], "energy_above_hull": [0.01306391], "energy_per_atom": [-20.06073], "formation_energy_per_atom": [-0.8014581], "homogeneous_poisson": [0.244], "is_gap_direct": [false], "is_magnetic": [false], "is_metal": [true], "is_stable": [false], "nelements": [2], "nsites": [8], "num_magnetic_sites": [0], "num_unique_magnetic_sites": [0], "theoretical": [false], "total_magnetization": [2.3e-05], "total_magnetization_normalized_formula_units": [5.75e-06], "total_magnetization_normalized_vol": [1.113465e-07], "uncorrected_energy_per_atom": [-20.06073], "universal_anisotropy": [0.295], "volume": [206.5624]}