{"includesElement": ["", "Dy", "H"], "includesElement___series_id": [9, 1], "includesElement__abundance_crust": [5.2, 1400.0], "includesElement__atomic_number": [66, 1], "includesElement__atomic_radius": [175.0, 25.0], "includesElement__atomic_radius_rahm": [275.0, 154.0], "includesElement__atomic_volume": [19.0, 14.1], "includesElement__atomic_weight": [162.5, 1.008], "includesElement__covalent_radius_cordero": [192.0, 31.0], "includesElement__covalent_radius_pyykko": [167.0, 32.0], "includesElement__covalent_radius_pyykko_double": [133.0], "includesElement__density": [8.55, 8.2e-05], "includesElement__dipole_polarizability": [163.0, 4.50711], "includesElement__dipole_polarizability_unc": [15.0, 3e-05], "includesElement__discovery_year": [1886, 1766], "includesElement__electron_affinity": [0.352, 0.754195], "includesElement__electronegativity_allred-rochow": [0.0001021908, 0.0009765625], "includesElement__electronegativity_cottrell-sutton": [0.1306364, 0.1767767], "includesElement__electronegativity_ghosh": [0.20333, 0.2638], "includesElement__electronegativity_gordy": [0.01706587, 0.03125], "includesElement__electronegativity_mulliken": [3.145525, 7.176315], "includesElement__electronegativity_nagle": [0.4191131, 0.6053882], "includesElement__electronegativity_pauling": [1.22, 2.2], "includesElement__electronegativity_sanderson": [0.5297338, 2.187771], "includesElement__en_ghosh": [0.20333, 0.2638], "includesElement__en_pauling": [1.22, 2.2], "includesElement__evaporation_heat": [291.0, 0.904], "includesElement__glawe_number": [24, 103], "includesElement__heat_of_formation": [290.4, 217.998], "includesElement__is_radioactive": [false], "includesElement__lattice_constant": [3.59, 3.75], "includesElement__mendeleev_number": [31, 105], "includesElement__molar_heat_capacity": [28.16, 28.836], "includesElement__period": [6, 1], "includesElement__pettifor_number": [25, 103], "includesElement__specific_heat_capacity": [0.173, 14.304], "includesElement__vdw_radius": [231.0, 110.0], "includesElement__vdw_radius_alvarez": [287.0, 120.0], "includesElement__vdw_radius_mm3": [290.0, 162.0], "includesElement__vdw_radius_uff": [342.8, 288.6], "includesElement__abundance_sea": [9.1e-07, 108000.0], "includesElement__atomic_weight_uncertainty": [0.001], "includesElement__c6_gb": [2430.0, 6.51], "includesElement__thermal_conductivity": [10.7, 0.1815], "includesElement__fusion_heat": [0.117], "includesElement__group_id": [1], "includesElement__electronegativity_allen": [13.61], "includesElement__en_allen": [13.61], "includesElement__metallic_radius_c12": [78.0], "includesElement__c6": [6.499027], "includesElement__vdw_radius_dreiding": [319.5], "includesElement__vdw_radius_bondi": [120.0], "includesElement__vdw_radius_rt": [110.0], "formula": ["Dy1H2"], "spacegroup": ["225"], "thermalConductivity": [9.95648], "icsd": ["53365"], "band_gap": [0.0], "density": [7.865928], "density_atomic": [11.57672], "deprecated": [false], "efermi": [3.187208], "energy_above_hull": [0.0], "energy_per_atom": [-13.76523], "formation_energy_per_atom": [-0.8012219], "homogeneous_poisson": [0.236], "is_gap_direct": [false], "is_magnetic": [false], "is_metal": [true], "is_stable": [true], "nelements": [2], "nsites": [3], "num_magnetic_sites": [0], "num_unique_magnetic_sites": [0], "theoretical": [false], "total_magnetization": [9.3e-06], "total_magnetization_normalized_formula_units": [9.3e-06], "total_magnetization_normalized_vol": [2.677787e-07], "uncorrected_energy_per_atom": [-13.76523], "universal_anisotropy": [0.611], "volume": [34.73017], "equilibrium_reaction_energy_per_atom": [-0.1582558]}