{"includesElement": ["", "Se", "Co"], "includesElement___series_id": [1, 8], "includesElement__abundance_crust": [0.05, 25.0], "includesElement__atomic_number": [34, 27], "includesElement__atomic_radius": [115.0, 135.0], "includesElement__atomic_radius_rahm": [224.0, 233.0], "includesElement__atomic_volume": [16.5, 6.7], "includesElement__atomic_weight": [78.971, 58.93319], "includesElement__covalent_radius_cordero": [120.0, 138.0], "includesElement__covalent_radius_pyykko": [116.0, 111.0], "includesElement__covalent_radius_pyykko_double": [107.0, 103.0], "includesElement__covalent_radius_pyykko_triple": [107.0, 96.0], "includesElement__density": [4.809, 8.86], "includesElement__dipole_polarizability": [28.9, 55.0], "includesElement__dipole_polarizability_unc": [1.0, 4.0], "includesElement__discovery_year": [1818, 1739], "includesElement__electron_affinity": [2.02067, 0.6622565], "includesElement__electronegativity_allred-rochow": [0.0005164982, 0.0003165327], "includesElement__electronegativity_cottrell-sutton": [0.2447729, 0.1874437], "includesElement__electronegativity_ghosh": [0.2240328, 0.1432363], "includesElement__electronegativity_gordy": [0.05991379, 0.03513514], "includesElement__electronegativity_mulliken": [5.886531, 4.271633], "includesElement__electronegativity_nagle": [0.592131, 0.5469655], "includesElement__electronegativity_pauling": [2.55, 1.88], "includesElement__electronegativity_sanderson": [0.9659121, 0.8832424], "includesElement__en_ghosh": [0.2240328, 0.1432363], "includesElement__en_pauling": [2.55, 1.88], "includesElement__evaporation_heat": [59.7, 389.1], "includesElement__fusion_heat": [5.23, 15.48], "includesElement__glawe_number": [95, 70], "includesElement__group_id": [16, 9], "includesElement__heat_of_formation": [227.2, 426.7], "includesElement__is_radioactive": [false], "includesElement__lattice_constant": [4.36, 2.51], "includesElement__mendeleev_number": [101, 63], "includesElement__molar_heat_capacity": [25.363, 24.81], "includesElement__period": [4], "includesElement__pettifor_number": [93, 64], "includesElement__specific_heat_capacity": [0.321, 0.421], "includesElement__vdw_radius": [190.0, 200.0], "includesElement__vdw_radius_alvarez": [182.0, 240.0], "includesElement__vdw_radius_mm3": [229.0, 223.0], "includesElement__vdw_radius_uff": [420.5, 287.2], "includesElement__abundance_sea": [0.0002, 2e-05], "includesElement__atomic_weight_uncertainty": [0.008, 4e-06], "includesElement__c6_gb": [233.0, 461.0], "includesElement__covalent_radius_bragg": [117.0, 137.0], "includesElement__electronegativity_allen": [14.34, 10.86], "includesElement__en_allen": [14.34, 10.86], "includesElement__metallic_radius": [117.0, 116.0], "includesElement__metallic_radius_c12": [140.0, 125.0], "includesElement__thermal_conductivity": [0.52, 100.0], "includesElement__vdw_radius_batsanov": [190.0, 200.0], "includesElement__c6": [210.0, 408.0], "includesElement__vdw_radius_dreiding": [403.0], "includesElement__vdw_radius_bondi": [190.0], "includesElement__is_monoisotopic": [true], "includesElement__gas_basicity": [719.8], "includesElement__proton_affinity": [742.7], "formula": ["Co4Se8"], "spacegroup": ["205"], "thermalConductivity": [3.61835], "icsd": ["246908"], "band_gap": [0.0], "density": [7.071868], "density_atomic": [16.97304], "deprecated": [false], "efermi": [6.210286], "energy_above_hull": [0.01159066], "energy_per_atom": [-14.28654], "formation_energy_per_atom": [-0.3340879], "homogeneous_poisson": [0.236], "is_gap_direct": [false], "is_magnetic": [true], "is_metal": [true], "is_stable": [false], "nelements": [2], "nsites": [12], "num_magnetic_sites": [4], "num_unique_magnetic_sites": [1], "theoretical": [false], "total_magnetization": [3.99919], "total_magnetization_normalized_formula_units": [0.9997975], "total_magnetization_normalized_vol": [0.01963502], "uncorrected_energy_per_atom": [-14.28654], "universal_anisotropy": [0.056], "volume": [203.6764]}