{"includesElement": ["", "N", "O"], "includesElement___series_id": [1], "includesElement__abundance_crust": [19.0, 461000.0], "includesElement__atomic_number": [7, 8], "includesElement__atomic_radius": [65.0, 60.0], "includesElement__atomic_radius_rahm": [179.0, 171.0], "includesElement__atomic_volume": [17.3, 14.0], "includesElement__atomic_weight": [14.007, 15.999], "includesElement__covalent_radius_cordero": [71.0, 66.0], "includesElement__covalent_radius_pyykko": [71.0, 63.0], "includesElement__covalent_radius_pyykko_double": [60.0, 57.0], "includesElement__covalent_radius_pyykko_triple": [54.0, 53.0], "includesElement__density": [0.001145, 0.001308], "includesElement__dipole_polarizability": [7.4, 5.3], "includesElement__dipole_polarizability_unc": [0.2], "includesElement__discovery_year": [1772, 1774], "includesElement__electron_affinity": [-1.4, 1.461113], "includesElement__electronegativity_allred-rochow": [0.000773656, 0.001146384], "includesElement__electronegativity_cottrell-sutton": [0.2343706, 0.2687419], "includesElement__electronegativity_ghosh": [0.26493, 0.304575], "includesElement__electronegativity_gordy": [0.05492958, 0.07222222], "includesElement__electronegativity_mulliken": [6.567065, 7.539584], "includesElement__electronegativity_nagle": [0.8774979, 1.042218], "includesElement__electronegativity_pauling": [3.04, 3.44], "includesElement__electronegativity_sanderson": [0.577482, 0.9416494], "includesElement__en_ghosh": [0.26493, 0.304575], "includesElement__en_pauling": [3.04, 3.44], "includesElement__glawe_number": [88, 97], "includesElement__group_id": [15, 16], "includesElement__heat_of_formation": [472.44, 249.229], "includesElement__is_radioactive": [false], "includesElement__lattice_constant": [4.039, 6.83], "includesElement__mendeleev_number": [93, 99], "includesElement__molar_heat_capacity": [29.124, 29.378], "includesElement__period": [2], "includesElement__pettifor_number": [100, 101], "includesElement__specific_heat_capacity": [1.04, 0.918], "includesElement__vdw_radius": [155.0, 152.0], "includesElement__vdw_radius_alvarez": [166.0, 150.0], "includesElement__vdw_radius_mm3": [193.0, 182.0], "includesElement__vdw_radius_uff": [366.0, 350.0], "includesElement__abundance_sea": [0.5, 857000.0], "includesElement__c6_gb": [25.7, 16.7], "includesElement__covalent_radius_bragg": [65.0], "includesElement__electronegativity_allen": [18.13, 21.36], "includesElement__en_allen": [18.13, 21.36], "includesElement__metallic_radius_c12": [53.0], "includesElement__thermal_conductivity": [0.026, 0.027], "includesElement__vdw_radius_batsanov": [160.0, 155.0], "includesElement__c6": [24.2, 15.6], "includesElement__vdw_radius_dreiding": [366.21, 340.46], "includesElement__gas_basicity": [318.7, 459.6], "includesElement__proton_affinity": [342.2, 485.2], "includesElement__vdw_radius_bondi": [155.0, 152.0], "includesElement__vdw_radius_rt": [164.0, 158.0], "formula": ["N8O4"], "spacegroup": ["205"], "thermalConductivity": [5.12946], "icsd": ["22397"], "band_gap": [3.3297], "density": [1.390242], "density_atomic": [17.52332], "deprecated": [false], "efermi": [-2.183989], "energy_above_hull": [1.666056], "energy_per_atom": [-5.884959], "formation_energy_per_atom": [1.324648], "is_gap_direct": [false], "is_magnetic": [false], "is_metal": [false], "is_stable": [false], "nelements": [2], "nsites": [12], "num_magnetic_sites": [0], "num_unique_magnetic_sites": [0], "theoretical": [false], "total_magnetization": [0.0005188], "total_magnetization_normalized_formula_units": [0.0001297], "total_magnetization_normalized_vol": [2.467189e-06], "uncorrected_energy_per_atom": [-5.655959], "volume": [210.2798], "cbm": [0.9896], "vbm": [-2.3401]}