{"includesElement": ["", "Se", "Tl"], "includesElement___series_id": [1, 7], "includesElement__abundance_crust": [0.05, 0.85], "includesElement__atomic_number": [34, 81], "includesElement__atomic_radius": [115.0, 190.0], "includesElement__atomic_radius_rahm": [224.0, 242.0], "includesElement__atomic_volume": [16.5, 17.2], "includesElement__atomic_weight": [78.971, 204.38], "includesElement__covalent_radius_cordero": [120.0, 145.0], "includesElement__covalent_radius_pyykko": [116.0, 144.0], "includesElement__covalent_radius_pyykko_double": [107.0, 142.0], "includesElement__covalent_radius_pyykko_triple": [107.0, 150.0], "includesElement__density": [4.809, 11.8], "includesElement__dipole_polarizability": [28.9, 50.0], "includesElement__dipole_polarizability_unc": [1.0, 2.0], "includesElement__discovery_year": [1818, 1861], "includesElement__electron_affinity": [2.02067, 0.377], "includesElement__electronegativity_allred-rochow": [0.0005164982, 0.0002411265], "includesElement__electronegativity_cottrell-sutton": [0.2447729, 0.186339], "includesElement__electronegativity_ghosh": [0.2240328, 0.173447], "includesElement__electronegativity_gordy": [0.05991379, 0.03472222], "includesElement__electronegativity_mulliken": [5.886531, 3.242643], "includesElement__electronegativity_nagle": [0.592131, 0.3914868], "includesElement__electronegativity_pauling": [2.55, 1.8], "includesElement__electronegativity_sanderson": [0.9659121, 0.9245096], "includesElement__en_ghosh": [0.2240328, 0.173447], "includesElement__en_pauling": [2.55, 1.8], "includesElement__evaporation_heat": [59.7, 162.4], "includesElement__fusion_heat": [5.23, 4.31], "includesElement__glawe_number": [95, 81], "includesElement__group_id": [16, 13], "includesElement__heat_of_formation": [227.2, 182.2], "includesElement__is_radioactive": [false], "includesElement__lattice_constant": [4.36, 3.46], "includesElement__mendeleev_number": [101, 85], "includesElement__molar_heat_capacity": [25.363, 26.32], "includesElement__period": [4, 6], "includesElement__pettifor_number": [93, 78], "includesElement__specific_heat_capacity": [0.321, 0.129], "includesElement__vdw_radius": [190.0, 196.0], "includesElement__vdw_radius_alvarez": [182.0, 247.0], "includesElement__vdw_radius_mm3": [229.0, 259.0], "includesElement__vdw_radius_uff": [420.5, 434.7], "includesElement__abundance_sea": [0.0002, 1.9e-05], "includesElement__atomic_weight_uncertainty": [0.008], "includesElement__c6_gb": [233.0, 509.0], "includesElement__covalent_radius_bragg": [117.0, 190.0], "includesElement__electronegativity_allen": [14.34], "includesElement__en_allen": [14.34], "includesElement__metallic_radius": [117.0, 144.0], "includesElement__metallic_radius_c12": [140.0, 160.0], "includesElement__thermal_conductivity": [0.52, 46.1], "includesElement__vdw_radius_batsanov": [190.0, 220.0], "includesElement__c6": [210.0], "includesElement__vdw_radius_dreiding": [403.0], "includesElement__vdw_radius_bondi": [190.0, 196.0], "formula": ["Se1Tl1"], "spacegroup": ["221"], "thermalConductivity": [0.164419], "icsd": ["52446"], "band_gap": [0.0], "density": [8.903207], "density_atomic": [26.42321], "deprecated": [false], "efermi": [4.578536], "energy_above_hull": [0.1962352], "energy_per_atom": [-33.92235], "formation_energy_per_atom": [-0.1769179], "homogeneous_poisson": [0.534], "is_gap_direct": [false], "is_magnetic": [false], "is_metal": [true], "is_stable": [false], "nelements": [2], "nsites": [2], "num_magnetic_sites": [0], "num_unique_magnetic_sites": [0], "theoretical": [false], "total_magnetization": [0.000379], "total_magnetization_normalized_formula_units": [0.000379], "total_magnetization_normalized_vol": [7.171725e-06], "uncorrected_energy_per_atom": [-3.00822], "universal_anisotropy": [0.019], "volume": [52.84642]}