{"includesElement": ["", "Yb"], "includesElement___series_id": [9], "includesElement__abundance_crust": [3.2], "includesElement__atomic_number": [70], "includesElement__atomic_radius": [175.0], "includesElement__atomic_radius_rahm": [277.0], "includesElement__atomic_volume": [24.8], "includesElement__atomic_weight": [173.045], "includesElement__covalent_radius_cordero": [187.0], "includesElement__covalent_radius_pyykko": [170.0], "includesElement__covalent_radius_pyykko_double": [129.0], "includesElement__density": [6.9], "includesElement__dipole_polarizability": [139.0], "includesElement__dipole_polarizability_unc": [6.0], "includesElement__discovery_year": [1878], "includesElement__electron_affinity": [-0.02], "includesElement__electronegativity_allred-rochow": [9.861592e-05], "includesElement__electronegativity_cottrell-sutton": [0.1294786], "includesElement__electronegativity_ghosh": [0.22119], "includesElement__electronegativity_gordy": [0.01676471], "includesElement__electronegativity_mulliken": [3.11708], "includesElement__electronegativity_nagle": [0.4864465], "includesElement__electronegativity_sanderson": [0.5176678], "includesElement__en_ghosh": [0.22119], "includesElement__evaporation_heat": [159.0], "includesElement__fusion_heat": [3.35], "includesElement__glawe_number": [18], "includesElement__heat_of_formation": [155.6], "includesElement__is_radioactive": [false], "includesElement__lattice_constant": [5.49], "includesElement__mendeleev_number": [39], "includesElement__molar_heat_capacity": [26.74], "includesElement__period": [6], "includesElement__pettifor_number": [17], "includesElement__specific_heat_capacity": [0.155], "includesElement__vdw_radius": [226.0], "includesElement__vdw_radius_alvarez": [280.0], "includesElement__vdw_radius_mm3": [279.0], "includesElement__vdw_radius_uff": [335.5], "includesElement__abundance_sea": [8.2e-07], "includesElement__atomic_weight_uncertainty": [0.01], "includesElement__c6_gb": [1910.0], "formula": ["Yb1"], "spacegroup": ["229"], "thermalConductivity": [4.4612], "icsd": ["43572"], "band_gap": [0.0], "density": [7.213098], "density_atomic": [39.83582], "deprecated": [false], "efermi": [1.470091], "has_reconstructed": [false], "homogeneous_poisson": [0.239], "is_gap_direct": [false], "is_magnetic": [false], "is_metal": [true], "is_stable": [false], "nelements": [1], "nsites": [1], "num_magnetic_sites": [0], "num_unique_magnetic_sites": [0], "shape_factor": [5.009163], "surface_anisotropy": [0.04619819], "theoretical": [false], "total_magnetization": [6.4e-05], "total_magnetization_normalized_formula_units": [6.4e-05], "total_magnetization_normalized_vol": [1.606594e-06], "universal_anisotropy": [9.305], "volume": [39.83582], "weighted_surface_energy": [0.4644607], "weighted_surface_energy_EV_PER_ANG2": [0.02898936], "weighted_work_function": [2.421075]}