{"includesElement": ["", "Ti"], "includesElement___series_id": [8], "includesElement__abundance_crust": [5650.0], "includesElement__atomic_number": [22], "includesElement__atomic_radius": [140.0], "includesElement__atomic_radius_rahm": [257.0], "includesElement__atomic_volume": [10.6], "includesElement__atomic_weight": [47.867], "includesElement__covalent_radius_cordero": [160.0], "includesElement__covalent_radius_pyykko": [136.0], "includesElement__covalent_radius_pyykko_double": [117.0], "includesElement__covalent_radius_pyykko_triple": [108.0], "includesElement__density": [4.506], "includesElement__dipole_polarizability": [100.0], "includesElement__dipole_polarizability_unc": [10.0], "includesElement__discovery_year": [1791], "includesElement__electron_affinity": [0.079], "includesElement__electronegativity_allred-rochow": [0.0001703071], "includesElement__electronegativity_cottrell-sutton": [0.1521899], "includesElement__electronegativity_ghosh": [0.1233637], "includesElement__electronegativity_gordy": [0.02316176], "includesElement__electronegativity_mulliken": [3.45356], "includesElement__electronegativity_nagle": [0.3419952], "includesElement__electronegativity_pauling": [1.54], "includesElement__electronegativity_sanderson": [0.4055462], "includesElement__en_ghosh": [0.1233637], "includesElement__en_pauling": [1.54], "includesElement__evaporation_heat": [422.6], "includesElement__fusion_heat": [18.8], "includesElement__glawe_number": [51], "includesElement__group_id": [4], "includesElement__heat_of_formation": [473.0], "includesElement__is_radioactive": [false], "includesElement__lattice_constant": [2.95], "includesElement__mendeleev_number": [43], "includesElement__molar_heat_capacity": [25.06], "includesElement__period": [4], "includesElement__pettifor_number": [51], "includesElement__specific_heat_capacity": [0.523], "includesElement__vdw_radius": [211.0], "includesElement__vdw_radius_alvarez": [246.0], "includesElement__vdw_radius_mm3": [239.0], "includesElement__vdw_radius_uff": [317.5], "includesElement__abundance_sea": [0.001], "includesElement__atomic_weight_uncertainty": [0.001], "includesElement__c6_gb": [1200.0], "includesElement__covalent_radius_bragg": [140.0], "includesElement__electronegativity_allen": [8.17], "includesElement__en_allen": [8.17], "includesElement__metallic_radius": [132.0], "includesElement__metallic_radius_c12": [147.0], "includesElement__thermal_conductivity": [21.9], "includesElement__vdw_radius_batsanov": [215.0], "includesElement__c6": [1044.0], "includesElement__gas_basicity": [853.7], "includesElement__proton_affinity": [876.0], "formula": ["Ti3"], "spacegroup": ["191"], "thermalConductivity": [29.7878], "icsd": ["52521"], "band_gap": [0.0], "density": [4.670172], "density_atomic": [17.01972], "deprecated": [false], "efermi": [5.885422], "energy_above_hull": [0.0], "energy_per_atom": [-12.93776], "formation_energy_per_atom": [0.0], "has_reconstructed": [false], "homogeneous_poisson": [0.267], "is_gap_direct": [false], "is_magnetic": [false], "is_metal": [true], "is_stable": [true], "nelements": [1], "nsites": [3], "num_magnetic_sites": [0], "num_unique_magnetic_sites": [0], "shape_factor": [5.017364], "surface_anisotropy": [0.03842011], "theoretical": [false], "total_magnetization": [7.36e-05], "total_magnetization_normalized_formula_units": [2.453333e-05], "total_magnetization_normalized_vol": [1.441465e-06], "uncorrected_energy_per_atom": [-12.93776], "universal_anisotropy": [0.22], "volume": [51.05916], "weighted_surface_energy": [1.998524], "weighted_surface_energy_EV_PER_ANG2": [0.1247381], "weighted_work_function": [3.496495], "equilibrium_reaction_energy_per_atom": [0.0]}