{"includesElement": ["", "Hf"], "includesElement___series_id": [8], "includesElement__abundance_crust": [3.0], "includesElement__atomic_number": [72], "includesElement__atomic_radius": [155.0], "includesElement__atomic_radius_rahm": [264.0], "includesElement__atomic_volume": [13.6], "includesElement__atomic_weight": [178.49], "includesElement__covalent_radius_cordero": [175.0], "includesElement__covalent_radius_pyykko": [152.0], "includesElement__covalent_radius_pyykko_double": [128.0], "includesElement__covalent_radius_pyykko_triple": [122.0], "includesElement__density": [13.3], "includesElement__dipole_polarizability": [103.0], "includesElement__dipole_polarizability_unc": [6.0], "includesElement__discovery_year": [1923], "includesElement__electron_affinity": [0.014], "includesElement__electronegativity_allred-rochow": [0.00013634], "includesElement__electronegativity_cottrell-sutton": [0.1439572], "includesElement__electronegativity_ghosh": [0.229987], "includesElement__electronegativity_gordy": [0.02072368], "includesElement__electronegativity_mulliken": [3.419535], "includesElement__electronegativity_nagle": [0.3386421], "includesElement__electronegativity_pauling": [1.3], "includesElement__electronegativity_sanderson": [0.7352125], "includesElement__en_ghosh": [0.229987], "includesElement__en_pauling": [1.3], "includesElement__evaporation_heat": [575.0], "includesElement__fusion_heat": [25.1], "includesElement__glawe_number": [50], "includesElement__group_id": [4], "includesElement__heat_of_formation": [618.4], "includesElement__is_radioactive": [false], "includesElement__lattice_constant": [3.2], "includesElement__mendeleev_number": [45], "includesElement__molar_heat_capacity": [25.73], "includesElement__period": [6], "includesElement__pettifor_number": [50], "includesElement__specific_heat_capacity": [0.144], "includesElement__vdw_radius": [223.0], "includesElement__vdw_radius_alvarez": [263.0], "includesElement__vdw_radius_mm3": [253.0], "includesElement__vdw_radius_uff": [314.1], "includesElement__abundance_sea": [7e-06], "includesElement__atomic_weight_uncertainty": [0.02], "includesElement__c6_gb": [1040.0], "includesElement__electronegativity_allen": [6.83], "includesElement__en_allen": [6.83], "includesElement__metallic_radius": [144.0], "includesElement__metallic_radius_c12": [159.0], "includesElement__thermal_conductivity": [23.0], "includesElement__vdw_radius_batsanov": [225.0], "formula": ["Hf3"], "spacegroup": ["191"], "thermalConductivity": [14.7496], "icsd": ["187430"], "band_gap": [0.0], "density": [13.50985], "density_atomic": [21.93877], "deprecated": [false], "efermi": [4.62985], "energy_above_hull": [0.03217814], "energy_per_atom": [-45.11924], "formation_energy_per_atom": [0.03217814], "is_gap_direct": [false], "is_magnetic": [false], "is_metal": [true], "is_stable": [false], "nelements": [1], "nsites": [3], "num_magnetic_sites": [0], "num_unique_magnetic_sites": [0], "theoretical": [true], "total_magnetization": [1e-06], "total_magnetization_normalized_formula_units": [3.333333e-07], "total_magnetization_normalized_vol": [1.51938e-08], "uncorrected_energy_per_atom": [-45.11924], "volume": [65.81632]}