{"includesElement": ["", "N"], "includesElement___series_id": [1], "includesElement__abundance_crust": [19.0], "includesElement__atomic_number": [7], "includesElement__atomic_radius": [65.0], "includesElement__atomic_radius_rahm": [179.0], "includesElement__atomic_volume": [17.3], "includesElement__atomic_weight": [14.007], "includesElement__covalent_radius_cordero": [71.0], "includesElement__covalent_radius_pyykko": [71.0], "includesElement__covalent_radius_pyykko_double": [60.0], "includesElement__covalent_radius_pyykko_triple": [54.0], "includesElement__density": [0.001145], "includesElement__dipole_polarizability": [7.4], "includesElement__dipole_polarizability_unc": [0.2], "includesElement__discovery_year": [1772], "includesElement__electron_affinity": [-1.4], "includesElement__electronegativity_allred-rochow": [0.000773656], "includesElement__electronegativity_cottrell-sutton": [0.2343706], "includesElement__electronegativity_ghosh": [0.26493], "includesElement__electronegativity_gordy": [0.05492958], "includesElement__electronegativity_mulliken": [6.567065], "includesElement__electronegativity_nagle": [0.8774979], "includesElement__electronegativity_pauling": [3.04], "includesElement__electronegativity_sanderson": [0.577482], "includesElement__en_ghosh": [0.26493], "includesElement__en_pauling": [3.04], "includesElement__glawe_number": [88], "includesElement__group_id": [15], "includesElement__heat_of_formation": [472.44], "includesElement__is_radioactive": [false], "includesElement__lattice_constant": [4.039], "includesElement__mendeleev_number": [93], "includesElement__molar_heat_capacity": [29.124], "includesElement__period": [2], "includesElement__pettifor_number": [100], "includesElement__specific_heat_capacity": [1.04], "includesElement__vdw_radius": [155.0], "includesElement__vdw_radius_alvarez": [166.0], "includesElement__vdw_radius_mm3": [193.0], "includesElement__vdw_radius_uff": [366.0], "includesElement__abundance_sea": [0.5], "includesElement__c6_gb": [25.7], "includesElement__covalent_radius_bragg": [65.0], "includesElement__electronegativity_allen": [18.13], "includesElement__en_allen": [18.13], "includesElement__metallic_radius_c12": [53.0], "includesElement__thermal_conductivity": [0.026], "includesElement__vdw_radius_batsanov": [160.0], "includesElement__c6": [24.2], "includesElement__vdw_radius_dreiding": [366.21], "includesElement__gas_basicity": [318.7], "includesElement__proton_affinity": [342.2], "includesElement__vdw_radius_bondi": [155.0], "includesElement__vdw_radius_rt": [164.0], "formula": ["N8"], "spacegroup": ["205"], "thermalConductivity": [4.03275], "icsd": ["426956"], "band_gap": [7.3685], "density": [1.082254], "density_atomic": [21.49095], "deprecated": [false], "efermi": [-6.833903], "energy_above_hull": [0.00178282], "energy_per_atom": [-9.126968], "formation_energy_per_atom": [0.00178282], "homogeneous_poisson": [0.306], "is_gap_direct": [false], "is_magnetic": [false], "is_metal": [false], "is_stable": [false], "nelements": [1], "nsites": [8], "num_magnetic_sites": [0], "num_unique_magnetic_sites": [0], "theoretical": [false], "total_magnetization": [0.0], "total_magnetization_normalized_formula_units": [0.0], "total_magnetization_normalized_vol": [0.0], "uncorrected_energy_per_atom": [-9.126968], "universal_anisotropy": [0.154], "volume": [171.9276], "cbm": [0.451], "vbm": [-6.9175]}