{"includesElement": ["", "P"], "includesElement___series_id": [1], "includesElement__abundance_crust": [1050.0], "includesElement__atomic_number": [15], "includesElement__atomic_radius": [100.0], "includesElement__atomic_radius_rahm": [223.0], "includesElement__atomic_volume": [17.0], "includesElement__atomic_weight": [30.97376], "includesElement__covalent_radius_cordero": [107.0], "includesElement__covalent_radius_pyykko": [111.0], "includesElement__covalent_radius_pyykko_double": [102.0], "includesElement__covalent_radius_pyykko_triple": [94.0], "includesElement__density": [1.823], "includesElement__dipole_polarizability": [25.0], "includesElement__dipole_polarizability_unc": [1.0], "includesElement__discovery_year": [1669], "includesElement__electron_affinity": [0.746607], "includesElement__electronegativity_allred-rochow": [0.0003895788], "includesElement__electronegativity_cottrell-sutton": [0.2079501], "includesElement__electronegativity_ghosh": [0.206931], "includesElement__electronegativity_gordy": [0.04324324], "includesElement__electronegativity_mulliken": [5.616646], "includesElement__electronegativity_nagle": [0.5848035], "includesElement__electronegativity_pauling": [2.19], "includesElement__electronegativity_sanderson": [0.4510269], "includesElement__en_ghosh": [0.206931], "includesElement__en_pauling": [2.19], "includesElement__evaporation_heat": [49.8], "includesElement__fusion_heat": [2.51], "includesElement__glawe_number": [89], "includesElement__group_id": [15], "includesElement__heat_of_formation": [316.5], "includesElement__is_radioactive": [false], "includesElement__lattice_constant": [7.17], "includesElement__mendeleev_number": [94], "includesElement__molar_heat_capacity": [23.824], "includesElement__period": [3], "includesElement__pettifor_number": [90], "includesElement__specific_heat_capacity": [0.769], "includesElement__vdw_radius": [180.0], "includesElement__vdw_radius_alvarez": [190.0], "includesElement__vdw_radius_mm3": [222.0], "includesElement__vdw_radius_uff": [414.7], "includesElement__abundance_sea": [0.06], "includesElement__atomic_weight_uncertainty": [5e-09], "includesElement__c6_gb": [187.0], "includesElement__electronegativity_allen": [13.33], "includesElement__en_allen": [13.33], "includesElement__metallic_radius": [110.0], "includesElement__metallic_radius_c12": [128.0], "includesElement__vdw_radius_batsanov": [195.0], "includesElement__c6": [185.0], "includesElement__is_monoisotopic": [true], "includesElement__vdw_radius_dreiding": [415.0], "includesElement__gas_basicity": [604.8], "includesElement__proton_affinity": [626.8], "includesElement__vdw_radius_bondi": [180.0], "formula": ["P4"], "spacegroup": ["221"], "thermalConductivity": [18.4595], "icsd": ["169539"], "band_gap": [0.0104], "density": [2.514125], "density_atomic": [20.45767], "deprecated": [false], "efermi": [6.031218], "energy_above_hull": [0.02021456], "energy_per_atom": [-8.981862], "formation_energy_per_atom": [0.02021456], "has_reconstructed": [false], "homogeneous_poisson": [0.247], "is_gap_direct": [true], "is_magnetic": [false], "is_metal": [false], "is_stable": [false], "nelements": [1], "nsites": [4], "num_magnetic_sites": [0], "num_unique_magnetic_sites": [0], "shape_factor": [5.2377], "surface_anisotropy": [0.05256844], "theoretical": [false], "total_magnetization": [0.0], "total_magnetization_normalized_formula_units": [0.0], "total_magnetization_normalized_vol": [0.0], "uncorrected_energy_per_atom": [-8.981862], "universal_anisotropy": [66.417], "volume": [81.83068], "weighted_surface_energy": [0.5943318], "weighted_surface_energy_EV_PER_ANG2": [0.03709527], "weighted_work_function": [5.100423], "cbm": [6.0366], "vbm": [6.0262]}