{"includesElement": ["", "Zr", "Mo"], "includesElement___series_id": [8], "includesElement__abundance_crust": [165.0, 1.2], "includesElement__atomic_number": [40, 42], "includesElement__atomic_radius": [155.0, 145.0], "includesElement__atomic_radius_rahm": [269.0, 244.0], "includesElement__atomic_volume": [14.1, 9.4], "includesElement__atomic_weight": [91.224, 95.95], "includesElement__covalent_radius_cordero": [175.0, 154.0], "includesElement__covalent_radius_pyykko": [154.0, 138.0], "includesElement__covalent_radius_pyykko_double": [127.0, 121.0], "includesElement__covalent_radius_pyykko_triple": [121.0, 113.0], "includesElement__density": [6.52, 10.2], "includesElement__dipole_polarizability": [112.0, 87.0], "includesElement__dipole_polarizability_unc": [13.0, 6.0], "includesElement__discovery_year": [1789, 1778], "includesElement__electron_affinity": [0.426, 0.748], "includesElement__electronegativity_allred-rochow": [0.0001328217, 0.0001549044], "includesElement__electronegativity_cottrell-sutton": [0.1430194, 0.1462081], "includesElement__electronegativity_ghosh": [0.1248887, 0.1312672], "includesElement__electronegativity_gordy": [0.02045455, 0.02137681], "includesElement__electronegativity_mulliken": [3.52995, 3.920215], "includesElement__electronegativity_nagle": [0.3293169, 0.4100883], "includesElement__electronegativity_pauling": [1.33, 2.16], "includesElement__electronegativity_sanderson": [0.4744467, 0.685295], "includesElement__en_ghosh": [0.1248887, 0.1312672], "includesElement__en_pauling": [1.33, 2.16], "includesElement__evaporation_heat": [567.0, 590.0], "includesElement__fusion_heat": [19.2, 28.0], "includesElement__glawe_number": [49, 56], "includesElement__group_id": [4, 6], "includesElement__heat_of_formation": [610.0, 658.98], "includesElement__is_radioactive": [false], "includesElement__lattice_constant": [3.23, 3.15], "includesElement__mendeleev_number": [44, 52], "includesElement__molar_heat_capacity": [25.36, 24.06], "includesElement__period": [5], "includesElement__pettifor_number": [49, 55], "includesElement__specific_heat_capacity": [0.278, 0.251], "includesElement__vdw_radius": [223.0, 217.0], "includesElement__vdw_radius_alvarez": [252.0, 245.0], "includesElement__vdw_radius_mm3": [254.0, 239.0], "includesElement__vdw_radius_uff": [312.4, 305.2], "includesElement__abundance_sea": [3e-05, 0.01], "includesElement__atomic_weight_uncertainty": [0.002, 0.01], "includesElement__c6_gb": [1360.0, 1030.0], "includesElement__electronegativity_allen": [7.808, 8.71], "includesElement__en_allen": [7.808, 8.71], "includesElement__metallic_radius": [145.0, 130.0], "includesElement__metallic_radius_c12": [160.0, 139.0], "includesElement__thermal_conductivity": [22.7], "includesElement__vdw_radius_batsanov": [230.0, 210.0], "formula": ["Mo4Zr2"], "spacegroup": ["227"], "thermalConductivity": [7.4037], "icsd": ["644505"], "band_gap": [0.0], "density": [8.553252], "density_atomic": [18.32072], "deprecated": [false], "efermi": [6.288335], "energy_above_hull": [0.0], "energy_per_atom": [-25.10368], "formation_energy_per_atom": [-0.1390927], "homogeneous_poisson": [-1.0], "is_gap_direct": [false], "is_magnetic": [false], "is_metal": [true], "is_stable": [true], "nelements": [2], "nsites": [6], "num_magnetic_sites": [0], "num_unique_magnetic_sites": [0], "theoretical": [false], "total_magnetization": [2e-07], "total_magnetization_normalized_formula_units": [1e-07], "total_magnetization_normalized_vol": [1.819433e-09], "uncorrected_energy_per_atom": [-25.10368], "universal_anisotropy": [-566780500000.0], "volume": [109.9243], "equilibrium_reaction_energy_per_atom": [-0.1390927]}