{"includesElement": ["", "Na", "Sb", "K"], "includesElement___series_id": [3, 5], "includesElement__abundance_crust": [23600.0, 0.2, 20900.0], "includesElement__atomic_number": [11, 51, 19], "includesElement__atomic_radius": [180.0, 145.0, 220.0], "includesElement__atomic_radius_rahm": [225.0, 246.0, 234.0], "includesElement__atomic_volume": [23.7, 18.4, 45.3], "includesElement__atomic_weight": [22.98977, 121.76, 39.0983], "includesElement__covalent_radius_cordero": [166.0, 139.0, 203.0], "includesElement__covalent_radius_pyykko": [155.0, 140.0, 196.0], "includesElement__covalent_radius_pyykko_double": [160.0, 133.0, 193.0], "includesElement__density": [0.97, 6.68, 0.89], "includesElement__dipole_polarizability": [162.7, 43.0, 289.7], "includesElement__dipole_polarizability_unc": [0.5, 2.0, 0.3], "includesElement__discovery_year": [1807], "includesElement__electron_affinity": [0.547926, 1.046, 0.50147], "includesElement__electronegativity_allred-rochow": [9.157128e-05, 0.0003214286, 5.726781e-05], "includesElement__electronegativity_cottrell-sutton": [0.1191367, 0.212132, 0.1059457], "includesElement__electronegativity_ghosh": [0.093214, 0.1918774, 0.0981896], "includesElement__electronegativity_gordy": [0.01419355, 0.045, 0.01122449], "includesElement__electronegativity_mulliken": [2.843501, 4.827195, 2.421067], "includesElement__electronegativity_nagle": [0.1831769, 0.4880907, 0.1511299], "includesElement__electronegativity_pauling": [0.93, 2.05, 0.82], "includesElement__electronegativity_sanderson": [0.09459764, 0.7762722, 0.1218383], "includesElement__en_ghosh": [0.093214, 0.1918774, 0.0981896], "includesElement__en_pauling": [0.93, 2.05, 0.82], "includesElement__evaporation_heat": [97.9, 195.2, 2.33], "includesElement__fusion_heat": [2.64, 20.08, 102.5], "includesElement__glawe_number": [11, 91, 10], "includesElement__group_id": [1, 15], "includesElement__heat_of_formation": [107.5, 264.4, 89.0], "includesElement__is_radioactive": [false], "includesElement__lattice_constant": [4.23, 4.51, 5.23], "includesElement__mendeleev_number": [2, 96, 3], "includesElement__molar_heat_capacity": [28.23, 25.23, 29.6], "includesElement__period": [3, 5, 4], "includesElement__pettifor_number": [11, 88, 10], "includesElement__specific_heat_capacity": [1.228, 0.207, 0.757], "includesElement__vdw_radius": [227.0, 206.0, 275.0], "includesElement__vdw_radius_alvarez": [250.0, 247.0, 273.0], "includesElement__vdw_radius_mm3": [270.0, 252.0, 309.0], "includesElement__vdw_radius_uff": [298.3, 442.0, 381.2], "includesElement__abundance_sea": [10800.0, 0.00024, 399.0], "includesElement__atomic_weight_uncertainty": [2e-08, 0.001, 0.0001], "includesElement__c6_gb": [1570.0, 504.0, 3910.0], "includesElement__covalent_radius_bragg": [177.0, 140.0, 207.0], "includesElement__electronegativity_allen": [5.14, 11.74, 4.34], "includesElement__en_allen": [5.14, 11.74, 4.34], "includesElement__metallic_radius": [157.0, 139.0, 203.0], "includesElement__metallic_radius_c12": [190.0, 166.0, 235.0], "includesElement__thermal_conductivity": [142.0, 24.43, 79.0], "includesElement__vdw_radius_batsanov": [240.0, 220.0, 280.0], "includesElement__c6": [1518.0, 492.0, 3923.0], "includesElement__is_monoisotopic": [true], "includesElement__vdw_radius_bondi": [227.0, 275.0], "includesElement__covalent_radius_pyykko_triple": [127.0], "includesElement__vdw_radius_dreiding": [435.0], "includesElement__vdw_radius_truhlar": [206.0], "formula": ["K1Na2Sb1"], "spacegroup": ["225"], "thermalConductivity": [1.6165], "icsd": ["44332"], "band_gap": [0.6721], "density": [3.003881], "density_atomic": [28.58488], "deprecated": [false], "efermi": [2.227975], "energy_above_hull": [0.0], "energy_per_atom": [-10.29403], "formation_energy_per_atom": [-0.5807917], "homogeneous_poisson": [0.226], "is_gap_direct": [true], "is_magnetic": [false], "is_metal": [false], "is_stable": [true], "nelements": [3], "nsites": [4], "num_magnetic_sites": [0], "num_unique_magnetic_sites": [0], "theoretical": [false], "total_magnetization": [0.0], "total_magnetization_normalized_formula_units": [0.0], "total_magnetization_normalized_vol": [0.0], "uncorrected_energy_per_atom": [-10.29403], "universal_anisotropy": [0.52], "volume": [114.3395], "cbm": [2.8392], "e_electronic": [9.143271], "e_ionic": [10.2634], "e_total": [19.40667], "equilibrium_reaction_energy_per_atom": [-0.01832976], "n": [3.023784], "vbm": [2.1671]}