{"includesElement": ["", "Si"], "includesElement___series_id": [5], "includesElement__abundance_crust": [282000.0], "includesElement__atomic_number": [14], "includesElement__atomic_radius": [110.0], "includesElement__atomic_radius_rahm": [232.0], "includesElement__atomic_volume": [12.1], "includesElement__atomic_weight": [28.085], "includesElement__covalent_radius_cordero": [111.0], "includesElement__covalent_radius_pyykko": [116.0], "includesElement__covalent_radius_pyykko_double": [107.0], "includesElement__covalent_radius_pyykko_triple": [102.0], "includesElement__density": [2.3296], "includesElement__dipole_polarizability": [37.3], "includesElement__dipole_polarizability_unc": [0.7], "includesElement__discovery_year": [1824], "includesElement__electron_affinity": [1.389521], "includesElement__electronegativity_allred-rochow": [0.0003084126], "includesElement__electronegativity_cottrell-sutton": [0.1891451], "includesElement__electronegativity_ghosh": [0.178503], "includesElement__electronegativity_gordy": [0.03577586], "includesElement__electronegativity_mulliken": [4.770602], "includesElement__electronegativity_nagle": [0.4750986], "includesElement__electronegativity_pauling": [1.9], "includesElement__electronegativity_sanderson": [0.3468158], "includesElement__en_ghosh": [0.178503], "includesElement__en_pauling": [1.9], "includesElement__evaporation_heat": [383.0], "includesElement__fusion_heat": [50.6], "includesElement__glawe_number": [85], "includesElement__group_id": [14], "includesElement__heat_of_formation": [450.0], "includesElement__is_radioactive": [false], "includesElement__lattice_constant": [5.43], "includesElement__mendeleev_number": [88], "includesElement__molar_heat_capacity": [19.99], "includesElement__period": [3], "includesElement__pettifor_number": [85], "includesElement__specific_heat_capacity": [0.712], "includesElement__vdw_radius": [210.0], "includesElement__vdw_radius_alvarez": [219.0], "includesElement__vdw_radius_mm3": [229.0], "includesElement__vdw_radius_uff": [429.5], "includesElement__abundance_sea": [2.2], "includesElement__c6_gb": [308.0], "includesElement__covalent_radius_bragg": [117.0], "includesElement__electronegativity_allen": [11.33], "includesElement__en_allen": [11.33], "includesElement__metallic_radius": [117.0], "includesElement__metallic_radius_c12": [138.0], "includesElement__thermal_conductivity": [149.0], "includesElement__vdw_radius_batsanov": [210.0], "includesElement__c6": [305.0], "includesElement__vdw_radius_dreiding": [427.0], "includesElement__gas_basicity": [814.1], "includesElement__proton_affinity": [837.0], "includesElement__vdw_radius_bondi": [210.0], "formula": ["Si46"], "spacegroup": ["223"], "thermalConductivity": [2.46106], "icsd": ["189393"], "band_gap": [1.3094], "density": [2.033232], "density_atomic": [22.93741], "deprecated": [false], "efermi": [3.881036], "energy_above_hull": [0.09184995], "energy_per_atom": [-8.681915], "formation_energy_per_atom": [0.09184995], "homogeneous_poisson": [0.248], "is_gap_direct": [false], "is_magnetic": [false], "is_metal": [false], "is_stable": [false], "nelements": [1], "nsites": [46], "num_magnetic_sites": [0], "num_unique_magnetic_sites": [0], "theoretical": [true], "total_magnetization": [0.0], "total_magnetization_normalized_formula_units": [0.0], "total_magnetization_normalized_vol": [0.0], "uncorrected_energy_per_atom": [-8.681915], "universal_anisotropy": [0.012], "volume": [1055.121], "cbm": [5.16], "vbm": [3.8506]}