{"includesElement": ["", "W"], "includesElement___series_id": [8], "includesElement__abundance_crust": [1.25], "includesElement__atomic_number": [74], "includesElement__atomic_radius": [135.0], "includesElement__atomic_radius_rahm": [253.0], "includesElement__atomic_volume": [9.53], "includesElement__atomic_weight": [183.84], "includesElement__covalent_radius_cordero": [162.0], "includesElement__covalent_radius_pyykko": [137.0], "includesElement__covalent_radius_pyykko_double": [120.0], "includesElement__covalent_radius_pyykko_triple": [115.0], "includesElement__density": [19.3], "includesElement__dipole_polarizability": [68.0], "includesElement__dipole_polarizability_unc": [15.0], "includesElement__discovery_year": [1783], "includesElement__electron_affinity": [0.81626], "includesElement__electronegativity_allred-rochow": [0.0001838137], "includesElement__electronegativity_cottrell-sutton": [0.1586899], "includesElement__electronegativity_ghosh": [0.2390504], "includesElement__electronegativity_gordy": [0.02518248], "includesElement__electronegativity_mulliken": [4.340145], "includesElement__electronegativity_nagle": [0.4451921], "includesElement__electronegativity_pauling": [1.7], "includesElement__electronegativity_sanderson": [1.019283], "includesElement__en_ghosh": [0.2390504], "includesElement__en_pauling": [1.7], "includesElement__evaporation_heat": [824.0], "includesElement__fusion_heat": [35.0], "includesElement__glawe_number": [57], "includesElement__group_id": [6], "includesElement__heat_of_formation": [851.0], "includesElement__is_radioactive": [false], "includesElement__lattice_constant": [3.16], "includesElement__mendeleev_number": [53], "includesElement__molar_heat_capacity": [24.27], "includesElement__period": [6], "includesElement__pettifor_number": [56], "includesElement__specific_heat_capacity": [0.132], "includesElement__vdw_radius": [218.0], "includesElement__vdw_radius_alvarez": [257.0], "includesElement__vdw_radius_mm3": [239.0], "includesElement__vdw_radius_uff": [309.6], "includesElement__abundance_sea": [0.0001], "includesElement__atomic_weight_uncertainty": [0.01], "includesElement__c6_gb": [757.0], "includesElement__electronegativity_allen": [8.67], "includesElement__en_allen": [8.67], "includesElement__metallic_radius": [130.0], "includesElement__metallic_radius_c12": [139.0], "includesElement__thermal_conductivity": [173.0], "includesElement__vdw_radius_batsanov": [210.0], "formula": ["W1"], "spacegroup": ["229"], "thermalConductivity": [60.8815], "icsd": ["426984"], "band_gap": [0.0], "density": [19.16071], "density_atomic": [15.93226], "deprecated": [false], "efermi": [7.382033], "energy_above_hull": [0.0], "energy_per_atom": [-51.36779], "formation_energy_per_atom": [0.0], "has_reconstructed": [false], "homogeneous_poisson": [0.289], "is_gap_direct": [false], "is_magnetic": [false], "is_metal": [true], "is_stable": [true], "nelements": [1], "nsites": [1], "num_magnetic_sites": [0], "num_unique_magnetic_sites": [0], "shape_factor": [5.003325], "surface_anisotropy": [0.03991067], "theoretical": [false], "total_magnetization": [0.0], "total_magnetization_normalized_formula_units": [0.0], "total_magnetization_normalized_vol": [0.0], "uncorrected_energy_per_atom": [-51.36779], "universal_anisotropy": [0.035], "volume": [15.93226], "weighted_surface_energy": [3.344991], "weighted_surface_energy_EV_PER_ANG2": [0.208778], "weighted_work_function": [4.468826], "equilibrium_reaction_energy_per_atom": [0.0]}