{"includesElement": ["", "Na", "C"], "includesElement___series_id": [3, 1], "includesElement__abundance_crust": [23600.0, 200.0], "includesElement__atomic_number": [11, 6], "includesElement__atomic_radius": [180.0, 70.0], "includesElement__atomic_radius_rahm": [225.0, 190.0], "includesElement__atomic_volume": [23.7, 5.3], "includesElement__atomic_weight": [22.98977, 12.011], "includesElement__covalent_radius_cordero": [166.0, 73.0], "includesElement__covalent_radius_pyykko": [155.0, 75.0], "includesElement__covalent_radius_pyykko_double": [160.0, 67.0], "includesElement__density": [0.97, 2.2], "includesElement__dipole_polarizability": [162.7, 11.3], "includesElement__dipole_polarizability_unc": [0.5, 0.2], "includesElement__discovery_year": [1807], "includesElement__electron_affinity": [0.547926, 1.262119], "includesElement__electronegativity_allred-rochow": [9.157128e-05, 0.0005777778], "includesElement__electronegativity_cottrell-sutton": [0.1191367, 0.2081666], "includesElement__electronegativity_ghosh": [0.093214, 0.224776], "includesElement__electronegativity_gordy": [0.01419355, 0.04333333], "includesElement__electronegativity_mulliken": [2.843501, 6.261208], "includesElement__electronegativity_nagle": [0.1831769, 0.7073926], "includesElement__electronegativity_pauling": [0.93, 2.55], "includesElement__electronegativity_sanderson": [0.09459764, 0.427525], "includesElement__en_ghosh": [0.093214, 0.224776], "includesElement__en_pauling": [0.93, 2.55], "includesElement__evaporation_heat": [97.9], "includesElement__fusion_heat": [2.64], "includesElement__glawe_number": [11, 87], "includesElement__group_id": [1, 14], "includesElement__heat_of_formation": [107.5, 716.87], "includesElement__is_radioactive": [false], "includesElement__lattice_constant": [4.23, 3.57], "includesElement__mendeleev_number": [2, 87], "includesElement__molar_heat_capacity": [28.23, 8.517], "includesElement__period": [3, 2], "includesElement__pettifor_number": [11, 95], "includesElement__specific_heat_capacity": [1.228, 0.709], "includesElement__vdw_radius": [227.0, 170.0], "includesElement__vdw_radius_alvarez": [250.0, 177.0], "includesElement__vdw_radius_mm3": [270.0, 204.0], "includesElement__vdw_radius_uff": [298.3, 385.1], "includesElement__abundance_sea": [10800.0, 28.0], "includesElement__atomic_weight_uncertainty": [2e-08], "includesElement__c6_gb": [1570.0, 47.9], "includesElement__covalent_radius_bragg": [177.0, 77.0], "includesElement__electronegativity_allen": [5.14, 15.05], "includesElement__en_allen": [5.14, 15.05], "includesElement__metallic_radius": [157.0], "includesElement__metallic_radius_c12": [190.0, 86.0], "includesElement__thermal_conductivity": [142.0, 1.59], "includesElement__vdw_radius_batsanov": [240.0, 170.0], "includesElement__c6": [1518.0, 46.6], "includesElement__is_monoisotopic": [true], "includesElement__vdw_radius_bondi": [227.0, 170.0], "includesElement__covalent_radius_pyykko_triple": [60.0], "includesElement__vdw_radius_dreiding": [389.83], "includesElement__vdw_radius_rt": [177.0], "formula": ["C8Na8"], "spacegroup": ["142"], "thermalConductivity": [2.427], "icsd": ["28066"], "band_gap": [3.3844], "density": [1.598476], "density_atomic": [18.1797], "deprecated": [false], "efermi": [-0.5208813], "energy_above_hull": [0.241062], "energy_per_atom": [-5.044131], "formation_energy_per_atom": [0.241062], "is_gap_direct": [false], "is_magnetic": [false], "is_metal": [false], "is_stable": [false], "nelements": [2], "nsites": [16], "num_magnetic_sites": [0], "num_unique_magnetic_sites": [0], "theoretical": [false], "total_magnetization": [0.0001311], "total_magnetization_normalized_formula_units": [1.63875e-05], "total_magnetization_normalized_vol": [4.507087e-07], "uncorrected_energy_per_atom": [-5.044131], "volume": [290.8752], "cbm": [2.8438], "vbm": [-0.5406]}