{"includesElement": ["", "S"], "includesElement___series_id": [1], "includesElement__abundance_crust": [350.0], "includesElement__atomic_number": [16], "includesElement__atomic_radius": [100.0], "includesElement__atomic_radius_rahm": [214.0], "includesElement__atomic_volume": [15.5], "includesElement__atomic_weight": [32.06], "includesElement__covalent_radius_cordero": [105.0], "includesElement__covalent_radius_pyykko": [103.0], "includesElement__covalent_radius_pyykko_double": [94.0], "includesElement__covalent_radius_pyykko_triple": [95.0], "includesElement__density": [2.07], "includesElement__dipole_polarizability": [19.4], "includesElement__dipole_polarizability_unc": [0.1], "includesElement__electron_affinity": [2.077104], "includesElement__electronegativity_allred-rochow": [0.0005137148], "includesElement__electronegativity_cottrell-sutton": [0.2300274], "includesElement__electronegativity_ghosh": [0.23596], "includesElement__electronegativity_gordy": [0.05291262], "includesElement__electronegativity_mulliken": [6.218557], "includesElement__electronegativity_nagle": [0.6762644], "includesElement__electronegativity_pauling": [2.58], "includesElement__electronegativity_sanderson": [0.6397251], "includesElement__en_ghosh": [0.23596], "includesElement__en_pauling": [2.58], "includesElement__evaporation_heat": [10.5], "includesElement__fusion_heat": [1.23], "includesElement__glawe_number": [96], "includesElement__group_id": [16], "includesElement__heat_of_formation": [277.17], "includesElement__is_radioactive": [false], "includesElement__lattice_constant": [10.47], "includesElement__mendeleev_number": [100], "includesElement__molar_heat_capacity": [22.7], "includesElement__period": [3], "includesElement__pettifor_number": [94], "includesElement__specific_heat_capacity": [0.708], "includesElement__vdw_radius": [180.0], "includesElement__vdw_radius_alvarez": [189.0], "includesElement__vdw_radius_mm3": [215.0], "includesElement__vdw_radius_uff": [403.5], "includesElement__abundance_sea": [905.0], "includesElement__c6_gb": [140.0], "includesElement__covalent_radius_bragg": [102.0], "includesElement__electronegativity_allen": [15.31], "includesElement__en_allen": [15.31], "includesElement__metallic_radius": [104.0], "includesElement__metallic_radius_c12": [127.0], "includesElement__thermal_conductivity": [0.27], "includesElement__vdw_radius_batsanov": [180.0], "includesElement__c6": [134.0], "includesElement__vdw_radius_dreiding": [403.0], "includesElement__gas_basicity": [640.2], "includesElement__proton_affinity": [664.3], "includesElement__vdw_radius_bondi": [180.0], "includesElement__vdw_radius_rt": [181.0], "formula": ["S9"], "spacegroup": ["154"], "thermalConductivity": [4.10801], "icsd": ["281124"], "band_gap": [2.2718], "density": [2.054793], "density_atomic": [25.91267], "deprecated": [false], "efermi": [0.7806815], "energy_above_hull": [0.03034168], "energy_per_atom": [-8.004657], "formation_energy_per_atom": [0.03034168], "homogeneous_poisson": [0.24], "is_gap_direct": [false], "is_magnetic": [false], "is_metal": [false], "is_stable": [false], "nelements": [1], "nsites": [9], "num_magnetic_sites": [0], "num_unique_magnetic_sites": [0], "theoretical": [false], "total_magnetization": [0.0], "total_magnetization_normalized_formula_units": [0.0], "total_magnetization_normalized_vol": [0.0], "uncorrected_energy_per_atom": [-8.004657], "universal_anisotropy": [25.798], "volume": [233.2141], "cbm": [2.9832], "e_electronic": [4.284386], "e_ionic": [0.02267598], "e_total": [4.307061], "n": [2.069876], "vbm": [0.7114], "e_ij_max": [0.00794038]}