{"includesElement": ["", "Cr"], "includesElement___series_id": [8], "includesElement__abundance_crust": [102.0], "includesElement__atomic_number": [24], "includesElement__atomic_radius": [140.0], "includesElement__atomic_radius_rahm": [233.0], "includesElement__atomic_volume": [7.23], "includesElement__atomic_weight": [51.9961], "includesElement__covalent_radius_cordero": [139.0], "includesElement__covalent_radius_pyykko": [122.0], "includesElement__covalent_radius_pyykko_double": [111.0], "includesElement__covalent_radius_pyykko_triple": [103.0], "includesElement__density": [7.15], "includesElement__dipole_polarizability": [83.0], "includesElement__dipole_polarizability_unc": [12.0], "includesElement__discovery_year": [1797], "includesElement__electron_affinity": [0.666], "includesElement__electronegativity_allred-rochow": [0.0001981994], "includesElement__electronegativity_cottrell-sutton": [0.1555003], "includesElement__electronegativity_ghosh": [0.1313053], "includesElement__electronegativity_gordy": [0.02418033], "includesElement__electronegativity_mulliken": [3.716255], "includesElement__electronegativity_nagle": [0.4165729], "includesElement__electronegativity_pauling": [1.66], "includesElement__electronegativity_sanderson": [0.6017723], "includesElement__en_ghosh": [0.1313053], "includesElement__en_pauling": [1.66], "includesElement__evaporation_heat": [342.0], "includesElement__fusion_heat": [21.0], "includesElement__glawe_number": [55], "includesElement__group_id": [6], "includesElement__heat_of_formation": [397.48], "includesElement__is_radioactive": [false], "includesElement__lattice_constant": [2.88], "includesElement__mendeleev_number": [51], "includesElement__molar_heat_capacity": [23.35], "includesElement__period": [4], "includesElement__pettifor_number": [57], "includesElement__specific_heat_capacity": [0.449], "includesElement__vdw_radius": [206.0], "includesElement__vdw_radius_alvarez": [245.0], "includesElement__vdw_radius_mm3": [225.0], "includesElement__vdw_radius_uff": [302.3], "includesElement__abundance_sea": [0.0003], "includesElement__atomic_weight_uncertainty": [0.0006], "includesElement__c6_gb": [709.0], "includesElement__covalent_radius_bragg": [140.0], "includesElement__electronegativity_allen": [9.77], "includesElement__en_allen": [9.77], "includesElement__metallic_radius": [119.0], "includesElement__metallic_radius_c12": [128.0], "includesElement__thermal_conductivity": [93.9], "includesElement__vdw_radius_batsanov": [205.0], "includesElement__c6": [602.0], "includesElement__gas_basicity": [768.4], "includesElement__proton_affinity": [791.3], "formula": ["Cr2"], "spacegroup": ["194"], "thermalConductivity": [3.00771], "icsd": ["151375"], "band_gap": [0.0], "density": [7.45116], "density_atomic": [11.58767], "deprecated": [false], "efermi": [6.492348], "energy_above_hull": [0.4203401], "energy_per_atom": [-14.653], "formation_energy_per_atom": [0.4203401], "is_gap_direct": [false], "is_magnetic": [false], "is_metal": [true], "is_stable": [false], "nelements": [1], "nsites": [2], "num_magnetic_sites": [0], "num_unique_magnetic_sites": [0], "theoretical": [false], "total_magnetization": [1e-07], "total_magnetization_normalized_formula_units": [5e-08], "total_magnetization_normalized_vol": [4.314933e-09], "uncorrected_energy_per_atom": [-9.232707], "volume": [23.17533]}