{"includesElement": ["", "Ag"], "includesElement___series_id": [8], "includesElement__abundance_crust": [0.075], "includesElement__atomic_number": [47], "includesElement__atomic_radius": [160.0], "includesElement__atomic_radius_rahm": [225.0], "includesElement__atomic_volume": [10.3], "includesElement__atomic_weight": [107.8682], "includesElement__covalent_radius_cordero": [145.0], "includesElement__covalent_radius_pyykko": [128.0], "includesElement__covalent_radius_pyykko_double": [139.0], "includesElement__covalent_radius_pyykko_triple": [137.0], "includesElement__density": [10.5], "includesElement__dipole_polarizability": [55.0], "includesElement__dipole_polarizability_unc": [8.0], "includesElement__electron_affinity": [1.302], "includesElement__electronegativity_allred-rochow": [0.0002258301], "includesElement__electronegativity_cottrell-sutton": [0.1700184], "includesElement__electronegativity_ghosh": [0.1472165], "includesElement__electronegativity_gordy": [0.02890625], "includesElement__electronegativity_mulliken": [4.439117], "includesElement__electronegativity_nagle": [0.5848035], "includesElement__electronegativity_pauling": [1.93], "includesElement__electronegativity_sanderson": [0.9437955], "includesElement__en_ghosh": [0.1472165], "includesElement__en_pauling": [1.93], "includesElement__evaporation_heat": [254.1], "includesElement__fusion_heat": [11.95], "includesElement__glawe_number": [67], "includesElement__group_id": [11], "includesElement__heat_of_formation": [284.9], "includesElement__is_radioactive": [false], "includesElement__lattice_constant": [4.09], "includesElement__mendeleev_number": [72], "includesElement__molar_heat_capacity": [25.35], "includesElement__period": [5], "includesElement__pettifor_number": [71], "includesElement__specific_heat_capacity": [0.235], "includesElement__vdw_radius": [211.0], "includesElement__vdw_radius_alvarez": [253.0], "includesElement__vdw_radius_mm3": [243.0], "includesElement__vdw_radius_uff": [314.8], "includesElement__abundance_sea": [4e-05], "includesElement__atomic_weight_uncertainty": [0.0002], "includesElement__c6_gb": [341.0], "includesElement__covalent_radius_bragg": [177.0], "includesElement__electronegativity_allen": [11.05], "includesElement__en_allen": [11.05], "includesElement__metallic_radius": [134.0], "includesElement__metallic_radius_c12": [144.0], "includesElement__thermal_conductivity": [429.0], "includesElement__vdw_radius_batsanov": [210.0], "formula": ["Ag2"], "spacegroup": ["194"], "thermalConductivity": [1.31896], "icsd": ["56269"], "band_gap": [0.0], "density": [10.30247], "density_atomic": [17.38607], "deprecated": [false], "efermi": [3.232035], "energy_above_hull": [0.007668675], "energy_per_atom": [-21.34821], "formation_energy_per_atom": [0.007668675], "homogeneous_poisson": [0.334], "is_gap_direct": [false], "is_magnetic": [false], "is_metal": [true], "is_stable": [false], "nelements": [1], "nsites": [2], "num_magnetic_sites": [0], "num_unique_magnetic_sites": [0], "theoretical": [false], "total_magnetization": [1e-06], "total_magnetization_normalized_formula_units": [5e-07], "total_magnetization_normalized_vol": [2.875866e-08], "uncorrected_energy_per_atom": [-21.34821], "universal_anisotropy": [0.823], "volume": [34.77213]}