{"includesElement": ["", "Se", "Cu"], "includesElement___series_id": [1, 8], "includesElement__abundance_crust": [0.05, 60.0], "includesElement__atomic_number": [34, 29], "includesElement__atomic_radius": [115.0, 135.0], "includesElement__atomic_radius_rahm": [224.0, 217.0], "includesElement__atomic_volume": [16.5, 7.1], "includesElement__atomic_weight": [78.971, 63.546], "includesElement__covalent_radius_cordero": [120.0, 132.0], "includesElement__covalent_radius_pyykko": [116.0, 112.0], "includesElement__covalent_radius_pyykko_double": [107.0, 115.0], "includesElement__covalent_radius_pyykko_triple": [107.0, 120.0], "includesElement__density": [4.809, 8.96], "includesElement__dipole_polarizability": [28.9, 46.5], "includesElement__dipole_polarizability_unc": [1.0, 0.5], "includesElement__discovery_year": [1818], "includesElement__electron_affinity": [2.02067, 1.235], "includesElement__electronegativity_allred-rochow": [0.0005164982, 0.0002949617], "includesElement__electronegativity_cottrell-sutton": [0.2447729, 0.1817573], "includesElement__electronegativity_ghosh": [0.2240328, 0.1511716], "includesElement__electronegativity_gordy": [0.05991379, 0.03303571], "includesElement__electronegativity_mulliken": [5.886531, 4.48069], "includesElement__electronegativity_nagle": [0.592131, 0.6184623], "includesElement__electronegativity_pauling": [2.55, 1.9], "includesElement__electronegativity_sanderson": [0.9659121, 0.9175542], "includesElement__en_ghosh": [0.2240328, 0.1511716], "includesElement__en_pauling": [2.55, 1.9], "includesElement__evaporation_heat": [59.7, 304.6], "includesElement__fusion_heat": [5.23, 13.01], "includesElement__glawe_number": [95, 68], "includesElement__group_id": [16, 11], "includesElement__heat_of_formation": [227.2, 337.4], "includesElement__is_radioactive": [false], "includesElement__lattice_constant": [4.36, 3.61], "includesElement__mendeleev_number": [101, 71], "includesElement__molar_heat_capacity": [25.363, 24.44], "includesElement__period": [4], "includesElement__pettifor_number": [93, 72], "includesElement__specific_heat_capacity": [0.321, 0.385], "includesElement__vdw_radius": [190.0, 196.0], "includesElement__vdw_radius_alvarez": [182.0, 238.0], "includesElement__vdw_radius_mm3": [229.0, 226.0], "includesElement__vdw_radius_uff": [420.5, 349.5], "includesElement__abundance_sea": [0.0002, 0.00025], "includesElement__atomic_weight_uncertainty": [0.008, 0.003], "includesElement__c6_gb": [233.0, 264.0], "includesElement__covalent_radius_bragg": [117.0, 137.0], "includesElement__electronegativity_allen": [14.34, 10.96], "includesElement__en_allen": [14.34, 10.96], "includesElement__metallic_radius": [117.0, 118.0], "includesElement__metallic_radius_c12": [140.0, 128.0], "includesElement__thermal_conductivity": [0.52, 401.0], "includesElement__vdw_radius_batsanov": [190.0, 200.0], "includesElement__c6": [210.0, 253.0], "includesElement__vdw_radius_dreiding": [403.0], "includesElement__vdw_radius_bondi": [190.0], "includesElement__gas_basicity": [632.4], "includesElement__proton_affinity": [655.3], "formula": ["Cu4Se8"], "spacegroup": ["205"], "thermalConductivity": [1.34732], "icsd": ["243"], "band_gap": [0.0], "density": [6.372603], "density_atomic": [19.23614], "deprecated": [false], "efermi": [4.840888], "energy_above_hull": [0.006502082], "energy_per_atom": [-13.284], "formation_energy_per_atom": [-0.1273586], "homogeneous_poisson": [0.35], "is_gap_direct": [false], "is_magnetic": [false], "is_metal": [true], "is_stable": [false], "nelements": [2], "nsites": [12], "num_magnetic_sites": [0], "num_unique_magnetic_sites": [0], "theoretical": [false], "total_magnetization": [0.0], "total_magnetization_normalized_formula_units": [0.0], "total_magnetization_normalized_vol": [0.0], "uncorrected_energy_per_atom": [-13.284], "universal_anisotropy": [0.355], "volume": [230.8337]}