{"includesElement": ["", "Si", "Mo"], "includesElement___series_id": [5, 8], "includesElement__abundance_crust": [282000.0, 1.2], "includesElement__atomic_number": [14, 42], "includesElement__atomic_radius": [110.0, 145.0], "includesElement__atomic_radius_rahm": [232.0, 244.0], "includesElement__atomic_volume": [12.1, 9.4], "includesElement__atomic_weight": [28.085, 95.95], "includesElement__covalent_radius_cordero": [111.0, 154.0], "includesElement__covalent_radius_pyykko": [116.0, 138.0], "includesElement__covalent_radius_pyykko_double": [107.0, 121.0], "includesElement__covalent_radius_pyykko_triple": [102.0, 113.0], "includesElement__density": [2.3296, 10.2], "includesElement__dipole_polarizability": [37.3, 87.0], "includesElement__dipole_polarizability_unc": [0.7, 6.0], "includesElement__discovery_year": [1824, 1778], "includesElement__electron_affinity": [1.389521, 0.748], "includesElement__electronegativity_allred-rochow": [0.0003084126, 0.0001549044], "includesElement__electronegativity_cottrell-sutton": [0.1891451, 0.1462081], "includesElement__electronegativity_ghosh": [0.178503, 0.1312672], "includesElement__electronegativity_gordy": [0.03577586, 0.02137681], "includesElement__electronegativity_mulliken": [4.770602, 3.920215], "includesElement__electronegativity_nagle": [0.4750986, 0.4100883], "includesElement__electronegativity_pauling": [1.9, 2.16], "includesElement__electronegativity_sanderson": [0.3468158, 0.685295], "includesElement__en_ghosh": [0.178503, 0.1312672], "includesElement__en_pauling": [1.9, 2.16], "includesElement__evaporation_heat": [383.0, 590.0], "includesElement__fusion_heat": [50.6, 28.0], "includesElement__glawe_number": [85, 56], "includesElement__group_id": [14, 6], "includesElement__heat_of_formation": [450.0, 658.98], "includesElement__is_radioactive": [false], "includesElement__lattice_constant": [5.43, 3.15], "includesElement__mendeleev_number": [88, 52], "includesElement__molar_heat_capacity": [19.99, 24.06], "includesElement__period": [3, 5], "includesElement__pettifor_number": [85, 55], "includesElement__specific_heat_capacity": [0.712, 0.251], "includesElement__vdw_radius": [210.0, 217.0], "includesElement__vdw_radius_alvarez": [219.0, 245.0], "includesElement__vdw_radius_mm3": [229.0, 239.0], "includesElement__vdw_radius_uff": [429.5, 305.2], "includesElement__abundance_sea": [2.2, 0.01], "includesElement__c6_gb": [308.0, 1030.0], "includesElement__covalent_radius_bragg": [117.0], "includesElement__electronegativity_allen": [11.33, 8.71], "includesElement__en_allen": [11.33, 8.71], "includesElement__metallic_radius": [117.0, 130.0], "includesElement__metallic_radius_c12": [138.0, 139.0], "includesElement__thermal_conductivity": [149.0], "includesElement__vdw_radius_batsanov": [210.0], "includesElement__c6": [305.0], "includesElement__vdw_radius_dreiding": [427.0], "includesElement__gas_basicity": [814.1], "includesElement__proton_affinity": [837.0], "includesElement__vdw_radius_bondi": [210.0], "includesElement__atomic_weight_uncertainty": [0.01], "formula": ["Mo6Si2"], "spacegroup": ["223"], "thermalConductivity": [14.8], "icsd": ["30640"], "band_gap": [0.0], "density": [8.9741], "density_atomic": [14.61354], "deprecated": [false], "efermi": [9.333512], "energy_above_hull": [0.0], "energy_per_atom": [-22.06969], "formation_energy_per_atom": [-0.3222606], "homogeneous_poisson": [0.28], "is_gap_direct": [false], "is_magnetic": [false], "is_metal": [true], "is_stable": [true], "nelements": [2], "nsites": [8], "num_magnetic_sites": [0], "num_unique_magnetic_sites": [0], "theoretical": [false], "total_magnetization": [3e-07], "total_magnetization_normalized_formula_units": [1.5e-07], "total_magnetization_normalized_vol": [2.566114e-09], "uncorrected_energy_per_atom": [-22.06969], "universal_anisotropy": [0.2], "volume": [116.9083], "equilibrium_reaction_energy_per_atom": [-0.05628692]}