{"includesElement": ["", "Ca", "S"], "includesElement___series_id": [4, 1], "includesElement__abundance_crust": [41500.0, 350.0], "includesElement__atomic_number": [20, 16], "includesElement__atomic_radius": [180.0, 100.0], "includesElement__atomic_radius_rahm": [270.0, 214.0], "includesElement__atomic_volume": [29.9, 15.5], "includesElement__atomic_weight": [40.078, 32.06], "includesElement__covalent_radius_cordero": [176.0, 105.0], "includesElement__covalent_radius_pyykko": [171.0, 103.0], "includesElement__covalent_radius_pyykko_double": [147.0, 94.0], "includesElement__covalent_radius_pyykko_triple": [133.0, 95.0], "includesElement__density": [1.54, 2.07], "includesElement__dipole_polarizability": [160.8, 19.4], "includesElement__dipole_polarizability_unc": [4.0, 0.1], "includesElement__discovery_year": [1808], "includesElement__electron_affinity": [0.02455, 2.077104], "includesElement__electronegativity_allred-rochow": [9.746589e-05, 0.0005137148], "includesElement__electronegativity_cottrell-sutton": [0.1290994, 0.2300274], "includesElement__electronegativity_ghosh": [0.1154119, 0.23596], "includesElement__electronegativity_gordy": [0.01666667, 0.05291262], "includesElement__electronegativity_mulliken": [3.068853, 6.218557], "includesElement__electronegativity_nagle": [0.2316939, 0.6762644], "includesElement__electronegativity_pauling": [1.0, 2.58], "includesElement__electronegativity_sanderson": [0.1901577, 0.6397251], "includesElement__en_ghosh": [0.1154119, 0.23596], "includesElement__en_pauling": [1.0, 2.58], "includesElement__evaporation_heat": [153.6, 10.5], "includesElement__fusion_heat": [9.2, 1.23], "includesElement__glawe_number": [16, 96], "includesElement__group_id": [2, 16], "includesElement__heat_of_formation": [177.8, 277.17], "includesElement__is_radioactive": [false], "includesElement__lattice_constant": [5.58, 10.47], "includesElement__mendeleev_number": [7, 100], "includesElement__molar_heat_capacity": [25.929, 22.7], "includesElement__period": [4, 3], "includesElement__pettifor_number": [16, 94], "includesElement__specific_heat_capacity": [0.647, 0.708], "includesElement__vdw_radius": [231.0, 180.0], "includesElement__vdw_radius_alvarez": [262.0, 189.0], "includesElement__vdw_radius_mm3": [281.0, 215.0], "includesElement__vdw_radius_uff": [339.9, 403.5], "includesElement__abundance_sea": [412.0, 905.0], "includesElement__atomic_weight_uncertainty": [0.004], "includesElement__c6_gb": [2230.0, 140.0], "includesElement__covalent_radius_bragg": [170.0, 102.0], "includesElement__electronegativity_allen": [6.113, 15.31], "includesElement__en_allen": [6.113, 15.31], "includesElement__metallic_radius": [174.0, 104.0], "includesElement__metallic_radius_c12": [197.0, 127.0], "includesElement__vdw_radius_batsanov": [240.0, 180.0], "includesElement__c6": [2163.0, 134.0], "includesElement__vdw_radius_truhlar": [231.0], "includesElement__thermal_conductivity": [0.27], "includesElement__vdw_radius_dreiding": [403.0], "includesElement__gas_basicity": [640.2], "includesElement__proton_affinity": [664.3], "includesElement__vdw_radius_bondi": [180.0], "includesElement__vdw_radius_rt": [181.0], "formula": ["Ca1S1", "CaS"], "mp_id": ["mp-1672"], "spacegroup": ["225"], "thermalConductivity": [14.7572, 36.74886, 46.64141], "icsd": ["186785"], "band_gap": [2.3819], "density": [2.581034], "density_atomic": [23.20703], "deprecated": [false], "efermi": [2.661713], "energy_above_hull": [0.0], "energy_per_atom": [-9.972254], "formation_energy_per_atom": [-2.435608], "homogeneous_poisson": [0.22], "is_gap_direct": [false], "is_magnetic": [false], "is_metal": [false], "is_stable": [true], "nelements": [2], "nsites": [2], "num_magnetic_sites": [0], "num_unique_magnetic_sites": [0], "theoretical": [false], "total_magnetization": [0.0], "total_magnetization_normalized_formula_units": [0.0], "total_magnetization_normalized_vol": [0.0], "uncorrected_energy_per_atom": [-9.972254], "universal_anisotropy": [0.191], "volume": [46.41406], "cbm": [5.0232], "e_electronic": [4.988335], "e_ionic": [7.103291], "e_total": [12.09163], "equilibrium_reaction_energy_per_atom": [-2.435608], "n": [2.233458], "vbm": [2.6413]}