{"includesElement": ["", "P", "Ag", "S"], "includesElement___series_id": [1, 8], "includesElement__abundance_crust": [1050.0, 0.075, 350.0], "includesElement__atomic_number": [15, 47, 16], "includesElement__atomic_radius": [100.0, 160.0], "includesElement__atomic_radius_rahm": [223.0, 225.0, 214.0], "includesElement__atomic_volume": [17.0, 10.3, 15.5], "includesElement__atomic_weight": [30.97376, 107.8682, 32.06], "includesElement__covalent_radius_cordero": [107.0, 145.0, 105.0], "includesElement__covalent_radius_pyykko": [111.0, 128.0, 103.0], "includesElement__covalent_radius_pyykko_double": [102.0, 139.0, 94.0], "includesElement__covalent_radius_pyykko_triple": [94.0, 137.0, 95.0], "includesElement__density": [1.823, 10.5, 2.07], "includesElement__dipole_polarizability": [25.0, 55.0, 19.4], "includesElement__dipole_polarizability_unc": [1.0, 8.0, 0.1], "includesElement__discovery_year": [1669], "includesElement__electron_affinity": [0.746607, 1.302, 2.077104], "includesElement__electronegativity_allred-rochow": [0.0003895788, 0.0002258301, 0.0005137148], "includesElement__electronegativity_cottrell-sutton": [0.2079501, 0.1700184, 0.2300274], "includesElement__electronegativity_ghosh": [0.206931, 0.1472165, 0.23596], "includesElement__electronegativity_gordy": [0.04324324, 0.02890625, 0.05291262], "includesElement__electronegativity_mulliken": [5.616646, 4.439117, 6.218557], "includesElement__electronegativity_nagle": [0.5848035, 0.6762644], "includesElement__electronegativity_pauling": [2.19, 1.93, 2.58], "includesElement__electronegativity_sanderson": [0.4510269, 0.9437955, 0.6397251], "includesElement__en_ghosh": [0.206931, 0.1472165, 0.23596], "includesElement__en_pauling": [2.19, 1.93, 2.58], "includesElement__evaporation_heat": [49.8, 254.1, 10.5], "includesElement__fusion_heat": [2.51, 11.95, 1.23], "includesElement__glawe_number": [89, 67, 96], "includesElement__group_id": [15, 11, 16], "includesElement__heat_of_formation": [316.5, 284.9, 277.17], "includesElement__is_radioactive": [false], "includesElement__lattice_constant": [7.17, 4.09, 10.47], "includesElement__mendeleev_number": [94, 72, 100], "includesElement__molar_heat_capacity": [23.824, 25.35, 22.7], "includesElement__period": [3, 5], "includesElement__pettifor_number": [90, 71, 94], "includesElement__specific_heat_capacity": [0.769, 0.235, 0.708], "includesElement__vdw_radius": [180.0, 211.0], "includesElement__vdw_radius_alvarez": [190.0, 253.0, 189.0], "includesElement__vdw_radius_mm3": [222.0, 243.0, 215.0], "includesElement__vdw_radius_uff": [414.7, 314.8, 403.5], "includesElement__abundance_sea": [0.06, 4e-05, 905.0], "includesElement__atomic_weight_uncertainty": [5e-09, 0.0002], "includesElement__c6_gb": [187.0, 341.0, 140.0], "includesElement__electronegativity_allen": [13.33, 11.05, 15.31], "includesElement__en_allen": [13.33, 11.05, 15.31], "includesElement__metallic_radius": [110.0, 134.0, 104.0], "includesElement__metallic_radius_c12": [128.0, 144.0, 127.0], "includesElement__vdw_radius_batsanov": [195.0, 210.0, 180.0], "includesElement__c6": [185.0, 134.0], "includesElement__is_monoisotopic": [true], "includesElement__vdw_radius_dreiding": [415.0, 403.0], "includesElement__gas_basicity": [604.8, 640.2], "includesElement__proton_affinity": [626.8, 664.3], "includesElement__vdw_radius_bondi": [180.0], "includesElement__covalent_radius_bragg": [177.0, 102.0], "includesElement__thermal_conductivity": [429.0, 0.27], "includesElement__vdw_radius_rt": [181.0], "formula": ["Ag6P2S8"], "spacegroup": ["31"], "thermalConductivity": [0.646044], "icsd": ["416585"], "band_gap": [0.9914], "density": [4.664243], "density_atomic": [21.48719], "deprecated": [false], "efermi": [2.771065], "energy_above_hull": [0.0], "energy_per_atom": [-13.40686], "formation_energy_per_atom": [-0.2556439], "is_gap_direct": [true], "is_magnetic": [false], "is_metal": [false], "is_stable": [true], "nelements": [3], "nsites": [16], "num_magnetic_sites": [0], "num_unique_magnetic_sites": [0], "theoretical": [false], "total_magnetization": [0.0], "total_magnetization_normalized_formula_units": [0.0], "total_magnetization_normalized_vol": [0.0], "uncorrected_energy_per_atom": [-13.40686], "volume": [343.7951], "cbm": [3.7208], "e_electronic": [6.963762], "e_ionic": [3.148884], "e_total": [10.11265], "equilibrium_reaction_energy_per_atom": [-0.09518816], "n": [2.638894], "vbm": [2.7294], "e_ij_max": [0.6239038]}