{"includesElement": ["", "Ni"], "includesElement___series_id": [8], "includesElement__abundance_crust": [84.0], "includesElement__atomic_number": [28], "includesElement__atomic_radius": [135.0], "includesElement__atomic_radius_rahm": [229.0], "includesElement__atomic_volume": [6.6], "includesElement__atomic_weight": [58.6934], "includesElement__covalent_radius_cordero": [124.0], "includesElement__covalent_radius_pyykko": [110.0], "includesElement__covalent_radius_pyykko_double": [101.0], "includesElement__covalent_radius_pyykko_triple": [101.0], "includesElement__density": [8.9], "includesElement__dipole_polarizability": [49.0], "includesElement__dipole_polarizability_unc": [3.0], "includesElement__discovery_year": [1751], "includesElement__electron_affinity": [1.156], "includesElement__electronegativity_allred-rochow": [0.0003347107], "includesElement__electronegativity_cottrell-sutton": [0.1918806], "includesElement__electronegativity_ghosh": [0.1472068], "includesElement__electronegativity_gordy": [0.03681818], "includesElement__electronegativity_mulliken": [4.397939], "includesElement__electronegativity_nagle": [0.588755], "includesElement__electronegativity_pauling": [1.91], "includesElement__electronegativity_sanderson": [0.937704], "includesElement__en_ghosh": [0.1472068], "includesElement__en_pauling": [1.91], "includesElement__evaporation_heat": [378.6], "includesElement__fusion_heat": [17.61], "includesElement__glawe_number": [69], "includesElement__group_id": [10], "includesElement__heat_of_formation": [430.1], "includesElement__is_radioactive": [false], "includesElement__lattice_constant": [3.52], "includesElement__mendeleev_number": [67], "includesElement__molar_heat_capacity": [26.07], "includesElement__period": [4], "includesElement__pettifor_number": [67], "includesElement__specific_heat_capacity": [0.444], "includesElement__vdw_radius": [197.0], "includesElement__vdw_radius_alvarez": [240.0], "includesElement__vdw_radius_mm3": [222.0], "includesElement__vdw_radius_uff": [283.4], "includesElement__abundance_sea": [0.00056], "includesElement__atomic_weight_uncertainty": [0.0004], "includesElement__c6_gb": [393.0], "includesElement__covalent_radius_bragg": [135.0], "includesElement__electronegativity_allen": [11.13], "includesElement__en_allen": [11.13], "includesElement__metallic_radius": [115.0], "includesElement__metallic_radius_c12": [124.0], "includesElement__thermal_conductivity": [90.9], "includesElement__vdw_radius_batsanov": [200.0], "includesElement__c6": [373.0], "includesElement__gas_basicity": [714.1], "includesElement__proton_affinity": [737.0], "formula": ["Ni1"], "spacegroup": ["229"], "thermalConductivity": [32.3688], "icsd": ["183264"], "band_gap": [0.0], "density": [9.196826], "density_atomic": [10.59743], "deprecated": [false], "efermi": [7.764285], "energy_above_hull": [0.1192592], "energy_per_atom": [-11.86246], "formation_energy_per_atom": [0.1192592], "homogeneous_poisson": [0.639], "is_gap_direct": [false], "is_magnetic": [true], "is_metal": [true], "is_stable": [false], "nelements": [1], "nsites": [1], "num_magnetic_sites": [1], "num_unique_magnetic_sites": [1], "theoretical": [true], "total_magnetization": [0.6576444], "total_magnetization_normalized_formula_units": [0.6576444], "total_magnetization_normalized_vol": [0.062057], "uncorrected_energy_per_atom": [-11.86246], "universal_anisotropy": [-7.213], "volume": [10.59743]}