{"includesElement": ["", "Ga"], "includesElement___series_id": [7], "includesElement__abundance_crust": [19.0], "includesElement__atomic_number": [31], "includesElement__atomic_radius": [130.0], "includesElement__atomic_radius_rahm": [233.0], "includesElement__atomic_volume": [11.8], "includesElement__atomic_weight": [69.723], "includesElement__covalent_radius_cordero": [122.0], "includesElement__covalent_radius_pyykko": [124.0], "includesElement__covalent_radius_pyykko_double": [117.0], "includesElement__covalent_radius_pyykko_triple": [121.0], "includesElement__density": [5.91], "includesElement__dipole_polarizability": [50.0], "includesElement__dipole_polarizability_unc": [3.0], "includesElement__discovery_year": [1875], "includesElement__electron_affinity": [0.43], "includesElement__electronegativity_allred-rochow": [0.0003251821], "includesElement__electronegativity_cottrell-sutton": [0.2008048], "includesElement__electronegativity_ghosh": [0.1723773], "includesElement__electronegativity_gordy": [0.04032258], "includesElement__electronegativity_mulliken": [3.214651], "includesElement__electronegativity_nagle": [0.3914868], "includesElement__electronegativity_pauling": [1.81], "includesElement__electronegativity_sanderson": [0.720541], "includesElement__en_ghosh": [0.1723773], "includesElement__en_pauling": [1.81], "includesElement__evaporation_heat": [270.3], "includesElement__fusion_heat": [5.59], "includesElement__glawe_number": [79], "includesElement__group_id": [13], "includesElement__heat_of_formation": [271.96], "includesElement__is_radioactive": [false], "includesElement__lattice_constant": [4.51], "includesElement__mendeleev_number": [83], "includesElement__molar_heat_capacity": [26.03], "includesElement__period": [4], "includesElement__pettifor_number": [81], "includesElement__specific_heat_capacity": [0.373], "includesElement__vdw_radius": [187.0], "includesElement__vdw_radius_alvarez": [232.0], "includesElement__vdw_radius_mm3": [246.0], "includesElement__vdw_radius_uff": [438.3], "includesElement__abundance_sea": [3e-05], "includesElement__atomic_weight_uncertainty": [0.001], "includesElement__c6_gb": [456.0], "includesElement__electronegativity_allen": [10.39], "includesElement__en_allen": [10.39], "includesElement__metallic_radius": [125.0], "includesElement__metallic_radius_c12": [140.0], "includesElement__thermal_conductivity": [28.1], "includesElement__vdw_radius_batsanov": [210.0], "includesElement__c6": [498.0], "includesElement__vdw_radius_dreiding": [439.0], "includesElement__vdw_radius_bondi": [187.0], "formula": ["Ga4"], "spacegroup": ["12"], "thermalConductivity": [6.69034], "icsd": ["165978"], "band_gap": [0.0], "density": [6.443199], "density_atomic": [17.96899], "deprecated": [false], "efermi": [3.16765], "energy_above_hull": [0.1245385], "energy_per_atom": [-11.31824], "formation_energy_per_atom": [0.1245385], "is_gap_direct": [false], "is_magnetic": [false], "is_metal": [true], "is_stable": [false], "nelements": [1], "nsites": [4], "num_magnetic_sites": [0], "num_unique_magnetic_sites": [0], "theoretical": [true], "total_magnetization": [8e-07], "total_magnetization_normalized_formula_units": [2e-07], "total_magnetization_normalized_vol": [1.113029e-08], "uncorrected_energy_per_atom": [-11.31824], "volume": [71.87596]}