{"includesElement": ["", "Se", "Ce"], "includesElement___series_id": [1, 9], "includesElement__abundance_crust": [0.05, 66.5], "includesElement__atomic_number": [34, 58], "includesElement__atomic_radius": [115.0, 185.0], "includesElement__atomic_radius_rahm": [224.0, 282.0], "includesElement__atomic_volume": [16.5, 21.0], "includesElement__atomic_weight": [78.971, 140.116], "includesElement__covalent_radius_cordero": [120.0, 204.0], "includesElement__covalent_radius_pyykko": [116.0, 163.0], "includesElement__covalent_radius_pyykko_double": [107.0, 137.0], "includesElement__covalent_radius_pyykko_triple": [107.0, 131.0], "includesElement__density": [4.809, 6.77], "includesElement__dipole_polarizability": [28.9, 205.0], "includesElement__dipole_polarizability_unc": [1.0, 20.0], "includesElement__discovery_year": [1818, 1803], "includesElement__electron_affinity": [2.02067, 0.65], "includesElement__electronegativity_allred-rochow": [0.0005164982, 0.0001129135], "includesElement__electronegativity_cottrell-sutton": [0.2447729, 0.1356647], "includesElement__electronegativity_ghosh": [0.2240328, 0.16761], "includesElement__electronegativity_gordy": [0.05991379, 0.01840491], "includesElement__electronegativity_mulliken": [5.886531, 3.0943], "includesElement__electronegativity_nagle": [0.592131, 0.2692167], "includesElement__electronegativity_pauling": [2.55, 1.12], "includesElement__electronegativity_sanderson": [0.9659121, 0.5356179], "includesElement__en_ghosh": [0.2240328, 0.16761], "includesElement__en_pauling": [2.55, 1.12], "includesElement__evaporation_heat": [59.7, 398.0], "includesElement__fusion_heat": [5.23, 5.2], "includesElement__glawe_number": [95, 31], "includesElement__group_id": [16], "includesElement__heat_of_formation": [227.2, 420.1], "includesElement__is_radioactive": [false], "includesElement__lattice_constant": [4.36, 5.16], "includesElement__mendeleev_number": [101, 15], "includesElement__molar_heat_capacity": [25.363, 26.94], "includesElement__period": [4, 6], "includesElement__pettifor_number": [93, 32], "includesElement__specific_heat_capacity": [0.321, 0.192], "includesElement__vdw_radius": [190.0, 242.0], "includesElement__vdw_radius_alvarez": [182.0, 288.0], "includesElement__vdw_radius_mm3": [229.0, 274.0], "includesElement__vdw_radius_uff": [420.5, 355.6], "includesElement__abundance_sea": [0.0002, 1.2e-06], "includesElement__atomic_weight_uncertainty": [0.008, 0.001], "includesElement__c6_gb": [233.0, 3480.0], "includesElement__covalent_radius_bragg": [117.0], "includesElement__electronegativity_allen": [14.34], "includesElement__en_allen": [14.34], "includesElement__metallic_radius": [117.0], "includesElement__metallic_radius_c12": [140.0], "includesElement__thermal_conductivity": [0.52, 11.3], "includesElement__vdw_radius_batsanov": [190.0], "includesElement__c6": [210.0], "includesElement__vdw_radius_dreiding": [403.0], "includesElement__vdw_radius_bondi": [190.0], "formula": ["Ce1Se1"], "spacegroup": ["225"], "thermalConductivity": [6.16872], "icsd": ["183946"], "band_gap": [0.0], "density": [6.59756], "density_atomic": [27.56961], "deprecated": [false], "efermi": [7.571758], "energy_above_hull": [0.0], "energy_per_atom": [-6.765309], "formation_energy_per_atom": [-2.048878], "homogeneous_poisson": [0.386], "is_gap_direct": [false], "is_magnetic": [true], "is_metal": [true], "is_stable": [true], "nelements": [2], "nsites": [2], "num_magnetic_sites": [1], "num_unique_magnetic_sites": [1], "theoretical": [false], "total_magnetization": [1.160815], "total_magnetization_normalized_formula_units": [1.160815], "total_magnetization_normalized_vol": [0.02105243], "uncorrected_energy_per_atom": [-24.72716], "universal_anisotropy": [5.11], "volume": [55.13921], "equilibrium_reaction_energy_per_atom": [-0.2008831]}