{"includesElement": ["", "S", "Ti"], "includesElement___series_id": [1, 8], "includesElement__abundance_crust": [350.0, 5650.0], "includesElement__atomic_number": [16, 22], "includesElement__atomic_radius": [100.0, 140.0], "includesElement__atomic_radius_rahm": [214.0, 257.0], "includesElement__atomic_volume": [15.5, 10.6], "includesElement__atomic_weight": [32.06, 47.867], "includesElement__covalent_radius_cordero": [105.0, 160.0], "includesElement__covalent_radius_pyykko": [103.0, 136.0], "includesElement__covalent_radius_pyykko_double": [94.0, 117.0], "includesElement__covalent_radius_pyykko_triple": [95.0, 108.0], "includesElement__density": [2.07, 4.506], "includesElement__dipole_polarizability": [19.4, 100.0], "includesElement__dipole_polarizability_unc": [0.1, 10.0], "includesElement__electron_affinity": [2.077104, 0.079], "includesElement__electronegativity_allred-rochow": [0.0005137148, 0.0001703071], "includesElement__electronegativity_cottrell-sutton": [0.2300274, 0.1521899], "includesElement__electronegativity_ghosh": [0.23596, 0.1233637], "includesElement__electronegativity_gordy": [0.05291262, 0.02316176], "includesElement__electronegativity_mulliken": [6.218557, 3.45356], "includesElement__electronegativity_nagle": [0.6762644, 0.3419952], "includesElement__electronegativity_pauling": [2.58, 1.54], "includesElement__electronegativity_sanderson": [0.6397251, 0.4055462], "includesElement__en_ghosh": [0.23596, 0.1233637], "includesElement__en_pauling": [2.58, 1.54], "includesElement__evaporation_heat": [10.5, 422.6], "includesElement__fusion_heat": [1.23, 18.8], "includesElement__glawe_number": [96, 51], "includesElement__group_id": [16, 4], "includesElement__heat_of_formation": [277.17, 473.0], "includesElement__is_radioactive": [false], "includesElement__lattice_constant": [10.47, 2.95], "includesElement__mendeleev_number": [100, 43], "includesElement__molar_heat_capacity": [22.7, 25.06], "includesElement__period": [3, 4], "includesElement__pettifor_number": [94, 51], "includesElement__specific_heat_capacity": [0.708, 0.523], "includesElement__vdw_radius": [180.0, 211.0], "includesElement__vdw_radius_alvarez": [189.0, 246.0], "includesElement__vdw_radius_mm3": [215.0, 239.0], "includesElement__vdw_radius_uff": [403.5, 317.5], "includesElement__abundance_sea": [905.0, 0.001], "includesElement__c6_gb": [140.0, 1200.0], "includesElement__covalent_radius_bragg": [102.0, 140.0], "includesElement__electronegativity_allen": [15.31, 8.17], "includesElement__en_allen": [15.31, 8.17], "includesElement__metallic_radius": [104.0, 132.0], "includesElement__metallic_radius_c12": [127.0, 147.0], "includesElement__thermal_conductivity": [0.27, 21.9], "includesElement__vdw_radius_batsanov": [180.0, 215.0], "includesElement__c6": [134.0, 1044.0], "includesElement__vdw_radius_dreiding": [403.0], "includesElement__gas_basicity": [640.2, 853.7], "includesElement__proton_affinity": [664.3, 876.0], "includesElement__vdw_radius_bondi": [180.0], "includesElement__vdw_radius_rt": [181.0], "includesElement__discovery_year": [1791], "includesElement__atomic_weight_uncertainty": [0.001], "formula": ["S1Ti1"], "spacegroup": ["187"], "thermalConductivity": [31.6162], "icsd": ["52193"], "band_gap": [0.0], "density": [4.462948], "density_atomic": [14.87024], "deprecated": [false], "efermi": [8.299208], "energy_above_hull": [0.0], "energy_per_atom": [-7.735808], "formation_energy_per_atom": [-1.718882], "homogeneous_poisson": [0.208], "is_gap_direct": [false], "is_magnetic": [false], "is_metal": [true], "is_stable": [true], "nelements": [2], "nsites": [2], "num_magnetic_sites": [0], "num_unique_magnetic_sites": [0], "theoretical": [false], "total_magnetization": [0.0], "total_magnetization_normalized_formula_units": [0.0], "total_magnetization_normalized_vol": [0.0], "uncorrected_energy_per_atom": [-12.10607], "universal_anisotropy": [0.486], "volume": [29.74048], "equilibrium_reaction_energy_per_atom": [-0.1825169]}