{"includesElement": ["", "Ba", "O"], "includesElement___series_id": [4, 1], "includesElement__abundance_crust": [425.0, 461000.0], "includesElement__atomic_number": [56, 8], "includesElement__atomic_radius": [215.0, 60.0], "includesElement__atomic_radius_rahm": [293.0, 171.0], "includesElement__atomic_volume": [39.0, 14.0], "includesElement__atomic_weight": [137.327, 15.999], "includesElement__covalent_radius_cordero": [215.0, 66.0], "includesElement__covalent_radius_pyykko": [196.0, 63.0], "includesElement__covalent_radius_pyykko_double": [161.0, 57.0], "includesElement__covalent_radius_pyykko_triple": [149.0, 53.0], "includesElement__density": [3.62, 0.001308], "includesElement__dipole_polarizability": [272.0, 5.3], "includesElement__dipole_polarizability_unc": [10.0, 0.2], "includesElement__discovery_year": [1808, 1774], "includesElement__electron_affinity": [0.14462, 1.461113], "includesElement__electronegativity_allred-rochow": [7.418784e-05, 0.001146384], "includesElement__electronegativity_cottrell-sutton": [0.1205853, 0.2687419], "includesElement__electronegativity_ghosh": [0.1586786, 0.304575], "includesElement__electronegativity_gordy": [0.01454082, 0.07222222], "includesElement__electronegativity_mulliken": [2.678142, 7.539584], "includesElement__electronegativity_nagle": [0.1944556, 1.042218], "includesElement__electronegativity_pauling": [0.89, 3.44], "includesElement__electronegativity_sanderson": [0.3032951, 0.9416494], "includesElement__en_ghosh": [0.1586786, 0.304575], "includesElement__en_pauling": [0.89, 3.44], "includesElement__evaporation_heat": [142.0], "includesElement__fusion_heat": [7.66], "includesElement__glawe_number": [14, 97], "includesElement__group_id": [2, 16], "includesElement__heat_of_formation": [179.1, 249.229], "includesElement__is_radioactive": [false], "includesElement__lattice_constant": [5.02, 6.83], "includesElement__mendeleev_number": [9, 99], "includesElement__molar_heat_capacity": [28.07, 29.378], "includesElement__period": [6, 2], "includesElement__pettifor_number": [14, 101], "includesElement__specific_heat_capacity": [0.204, 0.918], "includesElement__vdw_radius": [268.0, 152.0], "includesElement__vdw_radius_alvarez": [303.0, 150.0], "includesElement__vdw_radius_mm3": [307.0, 182.0], "includesElement__vdw_radius_uff": [370.3, 350.0], "includesElement__abundance_sea": [0.013, 857000.0], "includesElement__atomic_weight_uncertainty": [0.007], "includesElement__c6_gb": [5540.0, 16.7], "includesElement__covalent_radius_bragg": [210.0, 65.0], "includesElement__electronegativity_allen": [5.211, 21.36], "includesElement__en_allen": [5.211, 21.36], "includesElement__metallic_radius": [198.0], "includesElement__metallic_radius_c12": [222.0], "includesElement__vdw_radius_batsanov": [270.0, 155.0], "includesElement__vdw_radius_truhlar": [268.0], "includesElement__thermal_conductivity": [0.027], "includesElement__c6": [15.6], "includesElement__vdw_radius_dreiding": [340.46], "includesElement__gas_basicity": [459.6], "includesElement__proton_affinity": [485.2], "includesElement__vdw_radius_bondi": [152.0], "includesElement__vdw_radius_rt": [158.0], "formula": ["Ba1O2"], "spacegroup": ["139"], "thermalConductivity": [6.66459], "icsd": ["180397"], "band_gap": [2.2352], "density": [5.534179], "density_atomic": [16.93549], "deprecated": [false], "efermi": [2.228345], "energy_above_hull": [0.0], "energy_per_atom": [-6.108492], "formation_energy_per_atom": [-2.167324], "homogeneous_poisson": [0.267], "is_gap_direct": [true], "is_magnetic": [false], "is_metal": [false], "is_stable": [true], "nelements": [2], "nsites": [3], "num_magnetic_sites": [0], "num_unique_magnetic_sites": [0], "theoretical": [false], "total_magnetization": [0.0], "total_magnetization_normalized_formula_units": [0.0], "total_magnetization_normalized_vol": [0.0], "uncorrected_energy_per_atom": [-14.84698], "universal_anisotropy": [0.231], "volume": [50.80647], "cbm": [4.4204], "e_electronic": [3.519875], "e_ionic": [13.58553], "e_total": [17.1054], "equilibrium_reaction_energy_per_atom": [-0.2518389], "n": [1.876133], "vbm": [2.1852]}