{"includesElement": ["", "Zr"], "includesElement___series_id": [8], "includesElement__abundance_crust": [165.0], "includesElement__atomic_number": [40], "includesElement__atomic_radius": [155.0], "includesElement__atomic_radius_rahm": [269.0], "includesElement__atomic_volume": [14.1], "includesElement__atomic_weight": [91.224], "includesElement__covalent_radius_cordero": [175.0], "includesElement__covalent_radius_pyykko": [154.0], "includesElement__covalent_radius_pyykko_double": [127.0], "includesElement__covalent_radius_pyykko_triple": [121.0], "includesElement__density": [6.52], "includesElement__dipole_polarizability": [112.0], "includesElement__dipole_polarizability_unc": [13.0], "includesElement__discovery_year": [1789], "includesElement__electron_affinity": [0.426], "includesElement__electronegativity_allred-rochow": [0.0001328217], "includesElement__electronegativity_cottrell-sutton": [0.1430194], "includesElement__electronegativity_ghosh": [0.1248887], "includesElement__electronegativity_gordy": [0.02045455], "includesElement__electronegativity_mulliken": [3.52995], "includesElement__electronegativity_nagle": [0.3293169], "includesElement__electronegativity_pauling": [1.33], "includesElement__electronegativity_sanderson": [0.4744467], "includesElement__en_ghosh": [0.1248887], "includesElement__en_pauling": [1.33], "includesElement__evaporation_heat": [567.0], "includesElement__fusion_heat": [19.2], "includesElement__glawe_number": [49], "includesElement__group_id": [4], "includesElement__heat_of_formation": [610.0], "includesElement__is_radioactive": [false], "includesElement__lattice_constant": [3.23], "includesElement__mendeleev_number": [44], "includesElement__molar_heat_capacity": [25.36], "includesElement__period": [5], "includesElement__pettifor_number": [49], "includesElement__specific_heat_capacity": [0.278], "includesElement__vdw_radius": [223.0], "includesElement__vdw_radius_alvarez": [252.0], "includesElement__vdw_radius_mm3": [254.0], "includesElement__vdw_radius_uff": [312.4], "includesElement__abundance_sea": [3e-05], "includesElement__atomic_weight_uncertainty": [0.002], "includesElement__c6_gb": [1360.0], "includesElement__electronegativity_allen": [7.808], "includesElement__en_allen": [7.808], "includesElement__metallic_radius": [145.0], "includesElement__metallic_radius_c12": [160.0], "includesElement__thermal_conductivity": [22.7], "includesElement__vdw_radius_batsanov": [230.0], "formula": ["Zr2"], "spacegroup": ["194"], "thermalConductivity": [14.7003], "icsd": ["164572"], "band_gap": [0.0], "density": [6.446094], "density_atomic": [23.49966], "deprecated": [false], "efermi": [4.362319], "energy_above_hull": [0.0], "energy_per_atom": [-22.74979], "formation_energy_per_atom": [0.0], "has_reconstructed": [false], "homogeneous_poisson": [0.342], "is_gap_direct": [false], "is_magnetic": [false], "is_metal": [true], "is_stable": [true], "nelements": [1], "nsites": [2], "num_magnetic_sites": [0], "num_unique_magnetic_sites": [0], "shape_factor": [5.039373], "surface_anisotropy": [0.03494709], "theoretical": [false], "total_magnetization": [1.3e-06], "total_magnetization_normalized_formula_units": [6.5e-07], "total_magnetization_normalized_vol": [2.765998e-08], "uncorrected_energy_per_atom": [-22.74979], "universal_anisotropy": [0.306], "volume": [46.99932], "weighted_surface_energy": [1.614018], "weighted_surface_energy_EV_PER_ANG2": [0.1007391], "weighted_work_function": [3.570662], "equilibrium_reaction_energy_per_atom": [0.0]}