{"includesElement": ["", "Mg", "S"], "includesElement___series_id": [4, 1], "includesElement__abundance_crust": [23300.0, 350.0], "includesElement__atomic_number": [12, 16], "includesElement__atomic_radius": [150.0, 100.0], "includesElement__atomic_radius_rahm": [240.0, 214.0], "includesElement__atomic_volume": [14.0, 15.5], "includesElement__atomic_weight": [24.305, 32.06], "includesElement__covalent_radius_cordero": [141.0, 105.0], "includesElement__covalent_radius_pyykko": [139.0, 103.0], "includesElement__covalent_radius_pyykko_double": [132.0, 94.0], "includesElement__covalent_radius_pyykko_triple": [127.0, 95.0], "includesElement__density": [1.74, 2.07], "includesElement__dipole_polarizability": [71.2, 19.4], "includesElement__dipole_polarizability_unc": [0.4, 0.1], "includesElement__discovery_year": [1808], "includesElement__electronegativity_allred-rochow": [0.0001475079, 0.0005137148], "includesElement__electronegativity_cottrell-sutton": [0.1431908, 0.2300274], "includesElement__electronegativity_ghosh": [0.121644, 0.23596], "includesElement__electronegativity_gordy": [0.0205036, 0.05291262], "includesElement__electronegativity_mulliken": [3.823117, 6.218557], "includesElement__electronegativity_nagle": [0.3039835, 0.6762644], "includesElement__electronegativity_pauling": [1.31, 2.58], "includesElement__electronegativity_sanderson": [0.1524211, 0.6397251], "includesElement__en_ghosh": [0.121644, 0.23596], "includesElement__en_pauling": [1.31, 2.58], "includesElement__evaporation_heat": [131.8, 10.5], "includesElement__fusion_heat": [9.2, 1.23], "includesElement__glawe_number": [73, 96], "includesElement__group_id": [2, 16], "includesElement__heat_of_formation": [147.1, 277.17], "includesElement__is_radioactive": [false], "includesElement__lattice_constant": [3.21, 10.47], "includesElement__mendeleev_number": [76, 100], "includesElement__molar_heat_capacity": [24.869, 22.7], "includesElement__period": [3], "includesElement__pettifor_number": [73, 94], "includesElement__specific_heat_capacity": [1.023, 0.708], "includesElement__vdw_radius": [173.0, 180.0], "includesElement__vdw_radius_alvarez": [251.0, 189.0], "includesElement__vdw_radius_mm3": [243.0, 215.0], "includesElement__vdw_radius_uff": [302.1, 403.5], "includesElement__abundance_sea": [1290.0, 905.0], "includesElement__c6_gb": [629.0, 140.0], "includesElement__covalent_radius_bragg": [142.0, 102.0], "includesElement__electronegativity_allen": [7.646, 15.31], "includesElement__en_allen": [7.646, 15.31], "includesElement__metallic_radius": [136.0, 104.0], "includesElement__metallic_radius_c12": [160.0, 127.0], "includesElement__thermal_conductivity": [156.0, 0.27], "includesElement__vdw_radius_batsanov": [220.0, 180.0], "includesElement__c6": [626.0, 134.0], "includesElement__gas_basicity": [797.3, 640.2], "includesElement__proton_affinity": [819.6, 664.3], "includesElement__vdw_radius_bondi": [173.0, 180.0], "includesElement__electron_affinity": [2.077104], "includesElement__vdw_radius_dreiding": [403.0], "includesElement__vdw_radius_rt": [181.0], "formula": ["Mg1S1"], "spacegroup": ["216"], "thermalConductivity": [5.87782], "icsd": ["159401"], "band_gap": [3.3692], "density": [2.058127], "density_atomic": [22.74023], "deprecated": [false], "efermi": [1.399875], "energy_above_hull": [0.03434423], "energy_per_atom": [-4.511574], "formation_energy_per_atom": [-1.627159], "homogeneous_poisson": [0.339], "is_gap_direct": [true], "is_magnetic": [false], "is_metal": [false], "is_stable": [false], "nelements": [2], "nsites": [2], "num_magnetic_sites": [0], "num_unique_magnetic_sites": [0], "theoretical": [true], "total_magnetization": [0.0], "total_magnetization_normalized_formula_units": [0.0], "total_magnetization_normalized_vol": [0.0], "uncorrected_energy_per_atom": [-7.727264], "universal_anisotropy": [1.421], "volume": [45.48047], "cbm": [4.7165], "e_electronic": [4.039166], "e_ionic": [2.64602], "e_total": [6.685186], "n": [2.009768], "vbm": [1.3473], "e_ij_max": [0.3354067]}