{"includesElement": ["", "Se", "Zr", "Sr"], "includesElement___series_id": [1, 8, 4], "includesElement__abundance_crust": [0.05, 165.0, 370.0], "includesElement__atomic_number": [34, 40, 38], "includesElement__atomic_radius": [115.0, 155.0, 200.0], "includesElement__atomic_radius_rahm": [224.0, 269.0, 279.0], "includesElement__atomic_volume": [16.5, 14.1, 33.7], "includesElement__atomic_weight": [78.971, 91.224, 87.62], "includesElement__covalent_radius_cordero": [120.0, 175.0, 195.0], "includesElement__covalent_radius_pyykko": [116.0, 154.0, 185.0], "includesElement__covalent_radius_pyykko_double": [107.0, 127.0, 157.0], "includesElement__covalent_radius_pyykko_triple": [107.0, 121.0, 139.0], "includesElement__density": [4.809, 6.52, 2.64], "includesElement__dipole_polarizability": [28.9, 112.0, 197.2], "includesElement__dipole_polarizability_unc": [1.0, 13.0, 0.2], "includesElement__discovery_year": [1818, 1789, 1790], "includesElement__electron_affinity": [2.02067, 0.426, 0.048], "includesElement__electronegativity_allred-rochow": [0.0005164982, 0.0001328217, 8.327246e-05], "includesElement__electronegativity_cottrell-sutton": [0.2447729, 0.1430194, 0.1241185], "includesElement__electronegativity_ghosh": [0.2240328, 0.1248887, 0.1185082], "includesElement__electronegativity_gordy": [0.05991379, 0.02045455, 0.01540541], "includesElement__electronegativity_mulliken": [5.886531, 3.52995, 2.871434], "includesElement__electronegativity_nagle": [0.592131, 0.3293169, 0.2164584], "includesElement__electronegativity_pauling": [2.55, 1.33, 0.95], "includesElement__electronegativity_sanderson": [0.9659121, 0.4744467, 0.2631786], "includesElement__en_ghosh": [0.2240328, 0.1248887, 0.1185082], "includesElement__en_pauling": [2.55, 1.33, 0.95], "includesElement__evaporation_heat": [59.7, 567.0, 144.0], "includesElement__fusion_heat": [5.23, 19.2, 9.2], "includesElement__glawe_number": [95, 49, 15], "includesElement__group_id": [16, 4, 2], "includesElement__heat_of_formation": [227.2, 610.0, 164.0], "includesElement__is_radioactive": [false], "includesElement__lattice_constant": [4.36, 3.23, 6.08], "includesElement__mendeleev_number": [101, 44, 8], "includesElement__molar_heat_capacity": [25.363, 25.36, 26.79], "includesElement__period": [4, 5], "includesElement__pettifor_number": [93, 49, 15], "includesElement__specific_heat_capacity": [0.321, 0.278, 0.306], "includesElement__vdw_radius": [190.0, 223.0, 249.0], "includesElement__vdw_radius_alvarez": [182.0, 252.0, 284.0], "includesElement__vdw_radius_mm3": [229.0, 254.0, 300.0], "includesElement__vdw_radius_uff": [420.5, 312.4, 364.1], "includesElement__abundance_sea": [0.0002, 3e-05, 7.9], "includesElement__atomic_weight_uncertainty": [0.008, 0.002, 0.01], "includesElement__c6_gb": [233.0, 1360.0, 3230.0], "includesElement__covalent_radius_bragg": [117.0, 195.0], "includesElement__electronegativity_allen": [14.34, 7.808, 5.695], "includesElement__en_allen": [14.34, 7.808, 5.695], "includesElement__metallic_radius": [117.0, 145.0, 191.0], "includesElement__metallic_radius_c12": [140.0, 160.0, 215.0], "includesElement__thermal_conductivity": [0.52, 22.7], "includesElement__vdw_radius_batsanov": [190.0, 230.0, 255.0], "includesElement__c6": [210.0, 3175.0], "includesElement__vdw_radius_dreiding": [403.0], "includesElement__vdw_radius_bondi": [190.0], "includesElement__vdw_radius_truhlar": [249.0], "formula": ["Se12Sr4Zr4"], "spacegroup": ["62"], "thermalConductivity": [2.21072], "icsd": ["84723"], "band_gap": [0.1669], "density": [5.206314], "density_atomic": [26.5188], "deprecated": [false], "efermi": [3.363088], "energy_above_hull": [0.02711456], "energy_per_atom": [-18.02825], "formation_energy_per_atom": [-1.862228], "is_gap_direct": [true], "is_magnetic": [false], "is_metal": [false], "is_stable": [false], "nelements": [3], "nsites": [20], "num_magnetic_sites": [0], "num_unique_magnetic_sites": [0], "theoretical": [false], "total_magnetization": [0.0011343], "total_magnetization_normalized_formula_units": [0.000283575], "total_magnetization_normalized_vol": [2.138672e-06], "uncorrected_energy_per_atom": [-5.740135], "volume": [530.376], "cbm": [3.4307], "vbm": [3.2638]}