{"includesElement": ["", "Mg", "Se"], "includesElement___series_id": [4, 1], "includesElement__abundance_crust": [23300.0, 0.05], "includesElement__atomic_number": [12, 34], "includesElement__atomic_radius": [150.0, 115.0], "includesElement__atomic_radius_rahm": [240.0, 224.0], "includesElement__atomic_volume": [14.0, 16.5], "includesElement__atomic_weight": [24.305, 78.971], "includesElement__covalent_radius_cordero": [141.0, 120.0], "includesElement__covalent_radius_pyykko": [139.0, 116.0], "includesElement__covalent_radius_pyykko_double": [132.0, 107.0], "includesElement__covalent_radius_pyykko_triple": [127.0, 107.0], "includesElement__density": [1.74, 4.809], "includesElement__dipole_polarizability": [71.2, 28.9], "includesElement__dipole_polarizability_unc": [0.4, 1.0], "includesElement__discovery_year": [1808, 1818], "includesElement__electronegativity_allred-rochow": [0.0001475079, 0.0005164982], "includesElement__electronegativity_cottrell-sutton": [0.1431908, 0.2447729], "includesElement__electronegativity_ghosh": [0.121644, 0.2240328], "includesElement__electronegativity_gordy": [0.0205036, 0.05991379], "includesElement__electronegativity_mulliken": [3.823117, 5.886531], "includesElement__electronegativity_nagle": [0.3039835, 0.592131], "includesElement__electronegativity_pauling": [1.31, 2.55], "includesElement__electronegativity_sanderson": [0.1524211, 0.9659121], "includesElement__en_ghosh": [0.121644, 0.2240328], "includesElement__en_pauling": [1.31, 2.55], "includesElement__evaporation_heat": [131.8, 59.7], "includesElement__fusion_heat": [9.2, 5.23], "includesElement__glawe_number": [73, 95], "includesElement__group_id": [2, 16], "includesElement__heat_of_formation": [147.1, 227.2], "includesElement__is_radioactive": [false], "includesElement__lattice_constant": [3.21, 4.36], "includesElement__mendeleev_number": [76, 101], "includesElement__molar_heat_capacity": [24.869, 25.363], "includesElement__period": [3, 4], "includesElement__pettifor_number": [73, 93], "includesElement__specific_heat_capacity": [1.023, 0.321], "includesElement__vdw_radius": [173.0, 190.0], "includesElement__vdw_radius_alvarez": [251.0, 182.0], "includesElement__vdw_radius_mm3": [243.0, 229.0], "includesElement__vdw_radius_uff": [302.1, 420.5], "includesElement__abundance_sea": [1290.0, 0.0002], "includesElement__c6_gb": [629.0, 233.0], "includesElement__covalent_radius_bragg": [142.0, 117.0], "includesElement__electronegativity_allen": [7.646, 14.34], "includesElement__en_allen": [7.646, 14.34], "includesElement__metallic_radius": [136.0, 117.0], "includesElement__metallic_radius_c12": [160.0, 140.0], "includesElement__thermal_conductivity": [156.0, 0.52], "includesElement__vdw_radius_batsanov": [220.0, 190.0], "includesElement__c6": [626.0, 210.0], "includesElement__gas_basicity": [797.3], "includesElement__proton_affinity": [819.6], "includesElement__vdw_radius_bondi": [173.0, 190.0], "includesElement__electron_affinity": [2.02067], "includesElement__atomic_weight_uncertainty": [0.008], "includesElement__vdw_radius_dreiding": [403.0], "formula": ["Mg2Se2"], "spacegroup": ["186"], "thermalConductivity": [2.62973], "icsd": ["658986"], "band_gap": [2.5765], "density": [3.260005], "density_atomic": [26.29989], "deprecated": [false], "efermi": [0.5835676], "energy_above_hull": [0.0], "energy_per_atom": [-4.037487], "formation_energy_per_atom": [-1.474297], "homogeneous_poisson": [0.333], "is_gap_direct": [true], "is_magnetic": [false], "is_metal": [false], "is_stable": [true], "nelements": [2], "nsites": [4], "num_magnetic_sites": [0], "num_unique_magnetic_sites": [0], "theoretical": [false], "total_magnetization": [0.0], "total_magnetization_normalized_formula_units": [0.0], "total_magnetization_normalized_vol": [0.0], "uncorrected_energy_per_atom": [-10.70906], "universal_anisotropy": [0.06], "volume": [105.1996], "cbm": [3.0208], "e_electronic": [4.657035], "e_ionic": [2.67261], "e_total": [7.329645], "equilibrium_reaction_energy_per_atom": [-0.624357], "n": [2.158016], "vbm": [0.4443], "e_ij_max": [0.4637863]}