{"includesElement": ["", "Sn", "Mo"], "includesElement___series_id": [7, 8], "includesElement__abundance_crust": [2.3, 1.2], "includesElement__atomic_number": [50, 42], "includesElement__atomic_radius": [145.0], "includesElement__atomic_radius_rahm": [248.0, 244.0], "includesElement__atomic_volume": [16.3, 9.4], "includesElement__atomic_weight": [118.71, 95.95], "includesElement__covalent_radius_cordero": [139.0, 154.0], "includesElement__covalent_radius_pyykko": [140.0, 138.0], "includesElement__covalent_radius_pyykko_double": [130.0, 121.0], "includesElement__covalent_radius_pyykko_triple": [132.0, 113.0], "includesElement__density": [7.287, 10.2], "includesElement__dipole_polarizability": [53.0, 87.0], "includesElement__dipole_polarizability_unc": [6.0], "includesElement__electron_affinity": [1.112067, 0.748], "includesElement__electronegativity_allred-rochow": [0.0002882653, 0.0001549044], "includesElement__electronegativity_cottrell-sutton": [0.2008909, 0.1462081], "includesElement__electronegativity_ghosh": [0.178052, 0.1312672], "includesElement__electronegativity_gordy": [0.04035714, 0.02137681], "includesElement__electronegativity_mulliken": [4.227992, 3.920215], "includesElement__electronegativity_nagle": [0.4225986, 0.4100883], "includesElement__electronegativity_pauling": [1.96, 2.16], "includesElement__electronegativity_sanderson": [0.7622797, 0.685295], "includesElement__en_ghosh": [0.178052, 0.1312672], "includesElement__en_pauling": [1.96, 2.16], "includesElement__evaporation_heat": [296.0, 590.0], "includesElement__fusion_heat": [7.07, 28.0], "includesElement__glawe_number": [83, 56], "includesElement__group_id": [14, 6], "includesElement__heat_of_formation": [301.2, 658.98], "includesElement__is_radioactive": [false], "includesElement__lattice_constant": [5.82, 3.15], "includesElement__mendeleev_number": [90, 52], "includesElement__molar_heat_capacity": [26.99, 24.06], "includesElement__period": [5], "includesElement__pettifor_number": [83, 55], "includesElement__specific_heat_capacity": [0.227, 0.251], "includesElement__vdw_radius": [217.0], "includesElement__vdw_radius_alvarez": [242.0, 245.0], "includesElement__vdw_radius_mm3": [259.0, 239.0], "includesElement__vdw_radius_uff": [439.2, 305.2], "includesElement__abundance_sea": [4e-06, 0.01], "includesElement__atomic_weight_uncertainty": [0.007, 0.01], "includesElement__c6_gb": [715.0, 1030.0], "includesElement__covalent_radius_bragg": [140.0], "includesElement__electronegativity_allen": [10.79, 8.71], "includesElement__en_allen": [10.79, 8.71], "includesElement__metallic_radius": [142.0, 130.0], "includesElement__metallic_radius_c12": [163.0, 139.0], "includesElement__thermal_conductivity": [66.8], "includesElement__vdw_radius_batsanov": [225.0, 210.0], "includesElement__c6": [659.0], "includesElement__vdw_radius_dreiding": [447.0], "includesElement__vdw_radius_bondi": [217.0], "includesElement__discovery_year": [1778], "formula": ["Mo6Sn2"], "spacegroup": ["223"], "thermalConductivity": [9.10749], "icsd": ["105094"], "band_gap": [0.0], "density": [10.17865], "density_atomic": [16.58026], "deprecated": [false], "efermi": [9.503636], "energy_above_hull": [0.05509164], "energy_per_atom": [-25.68544], "formation_energy_per_atom": [0.05509164], "homogeneous_poisson": [0.295], "is_gap_direct": [false], "is_magnetic": [false], "is_metal": [true], "is_stable": [false], "nelements": [2], "nsites": [8], "num_magnetic_sites": [0], "num_unique_magnetic_sites": [0], "theoretical": [false], "total_magnetization": [3.73e-05], "total_magnetization_normalized_formula_units": [1.865e-05], "total_magnetization_normalized_vol": [2.812078e-07], "uncorrected_energy_per_atom": [-25.68544], "universal_anisotropy": [0.252], "volume": [132.6421]}