{"includesElement": ["", "Hg", "S"], "includesElement___series_id": [8, 1], "includesElement__abundance_crust": [0.085, 350.0], "includesElement__atomic_number": [80, 16], "includesElement__atomic_radius": [150.0, 100.0], "includesElement__atomic_radius_rahm": [229.0, 214.0], "includesElement__atomic_volume": [14.8, 15.5], "includesElement__atomic_weight": [200.592, 32.06], "includesElement__covalent_radius_cordero": [132.0, 105.0], "includesElement__covalent_radius_pyykko": [133.0, 103.0], "includesElement__covalent_radius_pyykko_double": [142.0, 94.0], "includesElement__density": [13.5336, 2.07], "includesElement__dipole_polarizability": [33.91, 19.4], "includesElement__dipole_polarizability_unc": [0.34, 0.1], "includesElement__electronegativity_allred-rochow": [0.0002459155, 0.0005137148], "includesElement__electronegativity_cottrell-sutton": [0.1808501, 0.2300274], "includesElement__electronegativity_ghosh": [0.169, 0.23596], "includesElement__electronegativity_gordy": [0.03270677, 0.05291262], "includesElement__electronegativity_mulliken": [5.218752, 6.218557], "includesElement__electronegativity_nagle": [0.7073231, 0.6762644], "includesElement__electronegativity_pauling": [1.9, 2.58], "includesElement__electronegativity_sanderson": [1.164789, 0.6397251], "includesElement__en_ghosh": [0.169, 0.23596], "includesElement__en_pauling": [1.9, 2.58], "includesElement__evaporation_heat": [58.5, 10.5], "includesElement__fusion_heat": [2.295, 1.23], "includesElement__glawe_number": [76, 96], "includesElement__group_id": [12, 16], "includesElement__heat_of_formation": [61.38, 277.17], "includesElement__is_radioactive": [false], "includesElement__lattice_constant": [2.99, 10.47], "includesElement__mendeleev_number": [79, 100], "includesElement__molar_heat_capacity": [27.983, 22.7], "includesElement__period": [6, 3], "includesElement__pettifor_number": [74, 94], "includesElement__specific_heat_capacity": [0.14, 0.708], "includesElement__vdw_radius": [223.0, 180.0], "includesElement__vdw_radius_alvarez": [245.0, 189.0], "includesElement__vdw_radius_mm3": [253.0, 215.0], "includesElement__vdw_radius_uff": [270.5, 403.5], "includesElement__abundance_sea": [3e-05, 905.0], "includesElement__atomic_weight_uncertainty": [0.003], "includesElement__c6_gb": [268.0, 140.0], "includesElement__electronegativity_allen": [10.44, 15.31], "includesElement__en_allen": [10.44, 15.31], "includesElement__metallic_radius": [139.0, 104.0], "includesElement__metallic_radius_c12": [151.0, 127.0], "includesElement__thermal_conductivity": [8.3, 0.27], "includesElement__vdw_radius_batsanov": [205.0, 180.0], "includesElement__covalent_radius_pyykko_triple": [95.0], "includesElement__electron_affinity": [2.077104], "includesElement__covalent_radius_bragg": [102.0], "includesElement__c6": [134.0], "includesElement__vdw_radius_dreiding": [403.0], "includesElement__gas_basicity": [640.2], "includesElement__proton_affinity": [664.3], "includesElement__vdw_radius_bondi": [180.0], "includesElement__vdw_radius_rt": [181.0], "formula": ["Hg1S1"], "spacegroup": ["216"], "thermalConductivity": [1.75868], "icsd": ["104340"], "band_gap": [0.0], "density": [7.375818], "density_atomic": [26.18914], "deprecated": [false], "efermi": [1.37195], "energy_above_hull": [0.0], "energy_per_atom": [-2.599075], "formation_energy_per_atom": [-0.375059], "homogeneous_poisson": [0.358], "is_gap_direct": [false], "is_magnetic": [false], "is_metal": [true], "is_stable": [true], "nelements": [2], "nsites": [2], "num_magnetic_sites": [0], "num_unique_magnetic_sites": [0], "theoretical": [false], "total_magnetization": [1e-07], "total_magnetization_normalized_formula_units": [1e-07], "total_magnetization_normalized_vol": [1.909188e-09], "uncorrected_energy_per_atom": [-28.87141], "universal_anisotropy": [1.778], "volume": [52.37829], "equilibrium_reaction_energy_per_atom": [-0.2595508]}