{"includesElement": ["", "Li"], "includesElement___series_id": [3], "includesElement__abundance_crust": [20.0], "includesElement__atomic_number": [3], "includesElement__atomic_radius": [145.0], "includesElement__atomic_radius_rahm": [220.0], "includesElement__atomic_volume": [13.1], "includesElement__atomic_weight": [6.94], "includesElement__covalent_radius_cordero": [128.0], "includesElement__covalent_radius_pyykko": [133.0], "includesElement__covalent_radius_pyykko_double": [124.0], "includesElement__density": [0.534], "includesElement__dipole_polarizability": [164.1125], "includesElement__dipole_polarizability_unc": [0.0005], "includesElement__discovery_year": [1817], "includesElement__electron_affinity": [0.618049], "includesElement__electronegativity_allred-rochow": [7.3492e-05], "includesElement__electronegativity_cottrell-sutton": [0.09886575], "includesElement__electronegativity_ghosh": [0.105093], "includesElement__electronegativity_gordy": [0.009774436], "includesElement__electronegativity_mulliken": [3.004882], "includesElement__electronegativity_nagle": [0.1826499], "includesElement__electronegativity_pauling": [0.98], "includesElement__electronegativity_sanderson": [0.04886793], "includesElement__en_ghosh": [0.105093], "includesElement__en_pauling": [0.98], "includesElement__evaporation_heat": [148.0], "includesElement__fusion_heat": [2.89], "includesElement__glawe_number": [12], "includesElement__group_id": [1], "includesElement__heat_of_formation": [159.3], "includesElement__is_radioactive": [false], "includesElement__lattice_constant": [3.49], "includesElement__mendeleev_number": [1], "includesElement__molar_heat_capacity": [24.86], "includesElement__period": [2], "includesElement__pettifor_number": [12], "includesElement__specific_heat_capacity": [3.582], "includesElement__vdw_radius": [182.0], "includesElement__vdw_radius_alvarez": [212.0], "includesElement__vdw_radius_mm3": [255.0], "includesElement__vdw_radius_uff": [245.1], "includesElement__abundance_sea": [0.18], "includesElement__c6_gb": [1410.0], "includesElement__covalent_radius_bragg": [150.0], "includesElement__electronegativity_allen": [5.392], "includesElement__en_allen": [5.392], "includesElement__metallic_radius": [123.0], "includesElement__metallic_radius_c12": [155.0], "includesElement__thermal_conductivity": [84.8], "includesElement__vdw_radius_batsanov": [220.0], "includesElement__c6": [1392.0], "includesElement__vdw_radius_bondi": [181.0], "formula": ["Li2"], "spacegroup": ["194"], "thermalConductivity": [3.15764], "icsd": ["44760"], "band_gap": [0.0], "density": [0.5732924], "density_atomic": [20.10458], "deprecated": [false], "efermi": [-0.0624507], "energy_above_hull": [0.005987748], "energy_per_atom": [-2.380719], "formation_energy_per_atom": [0.005987748], "has_reconstructed": [false], "homogeneous_poisson": [0.266], "is_gap_direct": [false], "is_magnetic": [false], "is_metal": [true], "is_stable": [false], "nelements": [1], "nsites": [2], "num_magnetic_sites": [0], "num_unique_magnetic_sites": [0], "shape_factor": [5.025631], "surface_anisotropy": [0.02498929], "theoretical": [false], "total_magnetization": [0.0029984], "total_magnetization_normalized_formula_units": [0.0014992], "total_magnetization_normalized_vol": [7.457008e-05], "uncorrected_energy_per_atom": [-2.380719], "universal_anisotropy": [0.232], "volume": [40.20915], "weighted_surface_energy": [0.5017422], "weighted_surface_energy_EV_PER_ANG2": [0.03131628], "weighted_work_function": [2.923605]}