{"includesElement": ["", "O", "Hf"], "includesElement___series_id": [1, 8], "includesElement__abundance_crust": [461000.0, 3.0], "includesElement__atomic_number": [8, 72], "includesElement__atomic_radius": [60.0, 155.0], "includesElement__atomic_radius_rahm": [171.0, 264.0], "includesElement__atomic_volume": [14.0, 13.6], "includesElement__atomic_weight": [15.999, 178.49], "includesElement__covalent_radius_cordero": [66.0, 175.0], "includesElement__covalent_radius_pyykko": [63.0, 152.0], "includesElement__covalent_radius_pyykko_double": [57.0, 128.0], "includesElement__covalent_radius_pyykko_triple": [53.0, 122.0], "includesElement__density": [0.001308, 13.3], "includesElement__dipole_polarizability": [5.3, 103.0], "includesElement__dipole_polarizability_unc": [0.2, 6.0], "includesElement__discovery_year": [1774, 1923], "includesElement__electron_affinity": [1.461113, 0.014], "includesElement__electronegativity_allred-rochow": [0.001146384, 0.00013634], "includesElement__electronegativity_cottrell-sutton": [0.2687419, 0.1439572], "includesElement__electronegativity_ghosh": [0.304575, 0.229987], "includesElement__electronegativity_gordy": [0.07222222, 0.02072368], "includesElement__electronegativity_mulliken": [7.539584, 3.419535], "includesElement__electronegativity_nagle": [1.042218, 0.3386421], "includesElement__electronegativity_pauling": [3.44, 1.3], "includesElement__electronegativity_sanderson": [0.9416494, 0.7352125], "includesElement__en_ghosh": [0.304575, 0.229987], "includesElement__en_pauling": [3.44, 1.3], "includesElement__glawe_number": [97, 50], "includesElement__group_id": [16, 4], "includesElement__heat_of_formation": [249.229, 618.4], "includesElement__is_radioactive": [false], "includesElement__lattice_constant": [6.83, 3.2], "includesElement__mendeleev_number": [99, 45], "includesElement__molar_heat_capacity": [29.378, 25.73], "includesElement__period": [2, 6], "includesElement__pettifor_number": [101, 50], "includesElement__specific_heat_capacity": [0.918, 0.144], "includesElement__vdw_radius": [152.0, 223.0], "includesElement__vdw_radius_alvarez": [150.0, 263.0], "includesElement__vdw_radius_mm3": [182.0, 253.0], "includesElement__vdw_radius_uff": [350.0, 314.1], "includesElement__abundance_sea": [857000.0, 7e-06], "includesElement__c6_gb": [16.7, 1040.0], "includesElement__covalent_radius_bragg": [65.0], "includesElement__electronegativity_allen": [21.36, 6.83], "includesElement__en_allen": [21.36, 6.83], "includesElement__thermal_conductivity": [0.027, 23.0], "includesElement__vdw_radius_batsanov": [155.0, 225.0], "includesElement__c6": [15.6], "includesElement__vdw_radius_dreiding": [340.46], "includesElement__gas_basicity": [459.6], "includesElement__proton_affinity": [485.2], "includesElement__vdw_radius_bondi": [152.0], "includesElement__vdw_radius_rt": [158.0], "includesElement__evaporation_heat": [575.0], "includesElement__fusion_heat": [25.1], "includesElement__atomic_weight_uncertainty": [0.02], "includesElement__metallic_radius": [144.0], "includesElement__metallic_radius_c12": [159.0], "formula": ["Hf4O8"], "spacegroup": ["62"], "thermalConductivity": [7.82442], "icsd": ["173968"], "band_gap": [3.3929], "density": [11.60339], "density_atomic": [10.04088], "deprecated": [false], "efermi": [4.846635], "energy_above_hull": [0.1392828], "energy_per_atom": [-22.79992], "formation_energy_per_atom": [-3.775679], "homogeneous_poisson": [0.318], "is_gap_direct": [true], "is_magnetic": [false], "is_metal": [false], "is_stable": [false], "nelements": [2], "nsites": [12], "num_magnetic_sites": [0], "num_unique_magnetic_sites": [0], "theoretical": [false], "total_magnetization": [0.0], "total_magnetization_normalized_formula_units": [0.0], "total_magnetization_normalized_vol": [0.0], "uncorrected_energy_per_atom": [-10.04023], "universal_anisotropy": [0.732], "volume": [120.4906], "cbm": [8.153], "vbm": [4.7601]}