{"includesElement": ["", "O", "Te"], "includesElement___series_id": [1, 5], "includesElement__abundance_crust": [461000.0, 0.001], "includesElement__atomic_number": [8, 52], "includesElement__atomic_radius": [60.0, 140.0], "includesElement__atomic_radius_rahm": [171.0, 242.0], "includesElement__atomic_volume": [14.0, 20.5], "includesElement__atomic_weight": [15.999, 127.6], "includesElement__covalent_radius_cordero": [66.0, 138.0], "includesElement__covalent_radius_pyykko": [63.0, 136.0], "includesElement__covalent_radius_pyykko_double": [57.0, 128.0], "includesElement__covalent_radius_pyykko_triple": [53.0, 121.0], "includesElement__density": [0.001308, 6.232], "includesElement__dipole_polarizability": [5.3, 38.0], "includesElement__dipole_polarizability_unc": [0.2, 4.0], "includesElement__discovery_year": [1774, 1782], "includesElement__electron_affinity": [1.461113, 1.970876], "includesElement__electronegativity_allred-rochow": [0.001146384, 0.0003757569], "includesElement__electronegativity_cottrell-sutton": [0.2687419, 0.2260596], "includesElement__electronegativity_ghosh": [0.304575, 0.2056992], "includesElement__electronegativity_gordy": [0.07222222, 0.05110294], "includesElement__electronegativity_mulliken": [7.539584, 5.490268], "includesElement__electronegativity_nagle": [1.042218, 0.5404919], "includesElement__electronegativity_pauling": [3.44, 2.1], "includesElement__electronegativity_sanderson": [0.9416494, 0.8622506], "includesElement__en_ghosh": [0.304575, 0.2056992], "includesElement__en_pauling": [3.44, 2.1], "includesElement__glawe_number": [97, 94], "includesElement__group_id": [16], "includesElement__heat_of_formation": [249.229, 196.6], "includesElement__is_radioactive": [false], "includesElement__lattice_constant": [6.83, 4.45], "includesElement__mendeleev_number": [99, 102], "includesElement__molar_heat_capacity": [29.378, 25.73], "includesElement__period": [2, 5], "includesElement__pettifor_number": [101, 92], "includesElement__specific_heat_capacity": [0.918, 0.202], "includesElement__vdw_radius": [152.0, 206.0], "includesElement__vdw_radius_alvarez": [150.0, 199.0], "includesElement__vdw_radius_mm3": [182.0, 244.0], "includesElement__vdw_radius_uff": [350.0, 447.0], "includesElement__abundance_sea": [857000.0], "includesElement__c6_gb": [16.7, 471.0], "includesElement__covalent_radius_bragg": [65.0, 133.0], "includesElement__electronegativity_allen": [21.36, 12.76], "includesElement__en_allen": [21.36, 12.76], "includesElement__thermal_conductivity": [0.027, 14.3], "includesElement__vdw_radius_batsanov": [155.0, 210.0], "includesElement__c6": [15.6, 445.0], "includesElement__vdw_radius_dreiding": [340.46, 423.0], "includesElement__gas_basicity": [459.6], "includesElement__proton_affinity": [485.2], "includesElement__vdw_radius_bondi": [152.0, 206.0], "includesElement__vdw_radius_rt": [158.0], "includesElement__evaporation_heat": [49.8], "includesElement__fusion_heat": [17.91], "includesElement__atomic_weight_uncertainty": [0.03], "includesElement__metallic_radius": [137.0], "includesElement__metallic_radius_c12": [160.0], "formula": ["O4Te2"], "spacegroup": ["136"], "thermalConductivity": [5.12679], "icsd": ["56004"], "band_gap": [0.0], "density": [5.965445], "density_atomic": [14.80862], "deprecated": [false], "efermi": [6.368559], "energy_above_hull": [0.2255147], "energy_per_atom": [-5.615955], "formation_energy_per_atom": [-1.266677], "homogeneous_poisson": [0.347], "is_gap_direct": [false], "is_magnetic": [false], "is_metal": [true], "is_stable": [false], "nelements": [2], "nsites": [6], "num_magnetic_sites": [0], "num_unique_magnetic_sites": [0], "theoretical": [false], "total_magnetization": [0.0], "total_magnetization_normalized_formula_units": [0.0], "total_magnetization_normalized_vol": [0.0], "uncorrected_energy_per_atom": [-5.157955], "universal_anisotropy": [2.056], "volume": [88.85173]}