{"includesElement": ["", "N", "Cu"], "includesElement___series_id": [1, 8], "includesElement__abundance_crust": [19.0, 60.0], "includesElement__atomic_number": [7, 29], "includesElement__atomic_radius": [65.0, 135.0], "includesElement__atomic_radius_rahm": [179.0, 217.0], "includesElement__atomic_volume": [17.3, 7.1], "includesElement__atomic_weight": [14.007, 63.546], "includesElement__covalent_radius_cordero": [71.0, 132.0], "includesElement__covalent_radius_pyykko": [71.0, 112.0], "includesElement__covalent_radius_pyykko_double": [60.0, 115.0], "includesElement__covalent_radius_pyykko_triple": [54.0, 120.0], "includesElement__density": [0.001145, 8.96], "includesElement__dipole_polarizability": [7.4, 46.5], "includesElement__dipole_polarizability_unc": [0.2, 0.5], "includesElement__discovery_year": [1772], "includesElement__electron_affinity": [-1.4, 1.235], "includesElement__electronegativity_allred-rochow": [0.000773656, 0.0002949617], "includesElement__electronegativity_cottrell-sutton": [0.2343706, 0.1817573], "includesElement__electronegativity_ghosh": [0.26493, 0.1511716], "includesElement__electronegativity_gordy": [0.05492958, 0.03303571], "includesElement__electronegativity_mulliken": [6.567065, 4.48069], "includesElement__electronegativity_nagle": [0.8774979, 0.6184623], "includesElement__electronegativity_pauling": [3.04, 1.9], "includesElement__electronegativity_sanderson": [0.577482, 0.9175542], "includesElement__en_ghosh": [0.26493, 0.1511716], "includesElement__en_pauling": [3.04, 1.9], "includesElement__glawe_number": [88, 68], "includesElement__group_id": [15, 11], "includesElement__heat_of_formation": [472.44, 337.4], "includesElement__is_radioactive": [false], "includesElement__lattice_constant": [4.039, 3.61], "includesElement__mendeleev_number": [93, 71], "includesElement__molar_heat_capacity": [29.124, 24.44], "includesElement__period": [2, 4], "includesElement__pettifor_number": [100, 72], "includesElement__specific_heat_capacity": [1.04, 0.385], "includesElement__vdw_radius": [155.0, 196.0], "includesElement__vdw_radius_alvarez": [166.0, 238.0], "includesElement__vdw_radius_mm3": [193.0, 226.0], "includesElement__vdw_radius_uff": [366.0, 349.5], "includesElement__abundance_sea": [0.5, 0.00025], "includesElement__c6_gb": [25.7, 264.0], "includesElement__covalent_radius_bragg": [65.0, 137.0], "includesElement__electronegativity_allen": [18.13, 10.96], "includesElement__en_allen": [18.13, 10.96], "includesElement__metallic_radius_c12": [53.0, 128.0], "includesElement__thermal_conductivity": [0.026, 401.0], "includesElement__vdw_radius_batsanov": [160.0, 200.0], "includesElement__c6": [24.2, 253.0], "includesElement__vdw_radius_dreiding": [366.21], "includesElement__gas_basicity": [318.7, 632.4], "includesElement__proton_affinity": [342.2, 655.3], "includesElement__vdw_radius_bondi": [155.0], "includesElement__vdw_radius_rt": [164.0], "includesElement__evaporation_heat": [304.6], "includesElement__fusion_heat": [13.01], "includesElement__atomic_weight_uncertainty": [0.003], "includesElement__metallic_radius": [118.0], "formula": ["Cu3N1"], "spacegroup": ["221"], "thermalConductivity": [3.30319], "icsd": ["167835"], "band_gap": [0.1947], "density": [6.12162], "density_atomic": [13.87788], "deprecated": [false], "efermi": [4.523089], "energy_above_hull": [0.1920804], "energy_per_atom": [-10.2252], "formation_energy_per_atom": [0.1920804], "homogeneous_poisson": [0.353], "is_gap_direct": [false], "is_magnetic": [false], "is_metal": [false], "is_stable": [false], "nelements": [2], "nsites": [4], "num_magnetic_sites": [0], "num_unique_magnetic_sites": [0], "theoretical": [false], "total_magnetization": [0.0], "total_magnetization_normalized_formula_units": [0.0], "total_magnetization_normalized_vol": [0.0], "uncorrected_energy_per_atom": [-4.876198], "universal_anisotropy": [3.768], "volume": [55.51153], "cbm": [4.6716], "vbm": [4.4769]}