{"includesElement": ["", "Ag", "O"], "includesElement___series_id": [8, 1], "includesElement__abundance_crust": [0.075, 461000.0], "includesElement__atomic_number": [47, 8], "includesElement__atomic_radius": [160.0, 60.0], "includesElement__atomic_radius_rahm": [225.0, 171.0], "includesElement__atomic_volume": [10.3, 14.0], "includesElement__atomic_weight": [107.8682, 15.999], "includesElement__covalent_radius_cordero": [145.0, 66.0], "includesElement__covalent_radius_pyykko": [128.0, 63.0], "includesElement__covalent_radius_pyykko_double": [139.0, 57.0], "includesElement__covalent_radius_pyykko_triple": [137.0, 53.0], "includesElement__density": [10.5, 0.001308], "includesElement__dipole_polarizability": [55.0, 5.3], "includesElement__dipole_polarizability_unc": [8.0, 0.2], "includesElement__electron_affinity": [1.302, 1.461113], "includesElement__electronegativity_allred-rochow": [0.0002258301, 0.001146384], "includesElement__electronegativity_cottrell-sutton": [0.1700184, 0.2687419], "includesElement__electronegativity_ghosh": [0.1472165, 0.304575], "includesElement__electronegativity_gordy": [0.02890625, 0.07222222], "includesElement__electronegativity_mulliken": [4.439117, 7.539584], "includesElement__electronegativity_nagle": [0.5848035, 1.042218], "includesElement__electronegativity_pauling": [1.93, 3.44], "includesElement__electronegativity_sanderson": [0.9437955, 0.9416494], "includesElement__en_ghosh": [0.1472165, 0.304575], "includesElement__en_pauling": [1.93, 3.44], "includesElement__evaporation_heat": [254.1], "includesElement__fusion_heat": [11.95], "includesElement__glawe_number": [67, 97], "includesElement__group_id": [11, 16], "includesElement__heat_of_formation": [284.9, 249.229], "includesElement__is_radioactive": [false], "includesElement__lattice_constant": [4.09, 6.83], "includesElement__mendeleev_number": [72, 99], "includesElement__molar_heat_capacity": [25.35, 29.378], "includesElement__period": [5, 2], "includesElement__pettifor_number": [71, 101], "includesElement__specific_heat_capacity": [0.235, 0.918], "includesElement__vdw_radius": [211.0, 152.0], "includesElement__vdw_radius_alvarez": [253.0, 150.0], "includesElement__vdw_radius_mm3": [243.0, 182.0], "includesElement__vdw_radius_uff": [314.8, 350.0], "includesElement__abundance_sea": [4e-05, 857000.0], "includesElement__atomic_weight_uncertainty": [0.0002], "includesElement__c6_gb": [341.0, 16.7], "includesElement__covalent_radius_bragg": [177.0, 65.0], "includesElement__electronegativity_allen": [11.05, 21.36], "includesElement__en_allen": [11.05, 21.36], "includesElement__metallic_radius": [134.0], "includesElement__metallic_radius_c12": [144.0], "includesElement__thermal_conductivity": [429.0, 0.027], "includesElement__vdw_radius_batsanov": [210.0, 155.0], "includesElement__discovery_year": [1774], "includesElement__c6": [15.6], "includesElement__vdw_radius_dreiding": [340.46], "includesElement__gas_basicity": [459.6], "includesElement__proton_affinity": [485.2], "includesElement__vdw_radius_bondi": [152.0], "includesElement__vdw_radius_rt": [158.0], "formula": ["Ag4O2"], "spacegroup": ["224"], "thermalConductivity": [0.0174529], "icsd": ["173984"], "band_gap": [0.0], "density": [7.163038], "density_atomic": [17.90704], "deprecated": [false], "efermi": [0.8263367], "energy_above_hull": [0.0], "energy_per_atom": [-3.860246], "formation_energy_per_atom": [-0.3141996], "homogeneous_poisson": [0.5], "is_gap_direct": [false], "is_magnetic": [false], "is_metal": [true], "is_stable": [true], "nelements": [2], "nsites": [6], "num_magnetic_sites": [0], "num_unique_magnetic_sites": [0], "theoretical": [false], "total_magnetization": [0.0], "total_magnetization_normalized_formula_units": [0.0], "total_magnetization_normalized_vol": [0.0], "uncorrected_energy_per_atom": [-16.39335], "universal_anisotropy": [-9.703], "volume": [107.4422], "e_electronic": [6.749154], "e_ionic": [0.6020246], "e_total": [7.351179], "equilibrium_reaction_energy_per_atom": [-0.02058601], "n": [2.597913]}