{"includesElement": ["", "Li", "S"], "includesElement___series_id": [3, 1], "includesElement__abundance_crust": [20.0, 350.0], "includesElement__atomic_number": [3, 16], "includesElement__atomic_radius": [145.0, 100.0], "includesElement__atomic_radius_rahm": [220.0, 214.0], "includesElement__atomic_volume": [13.1, 15.5], "includesElement__atomic_weight": [6.94, 32.06], "includesElement__covalent_radius_cordero": [128.0, 105.0], "includesElement__covalent_radius_pyykko": [133.0, 103.0], "includesElement__covalent_radius_pyykko_double": [124.0, 94.0], "includesElement__density": [0.534, 2.07], "includesElement__dipole_polarizability": [164.1125, 19.4], "includesElement__dipole_polarizability_unc": [0.0005, 0.1], "includesElement__discovery_year": [1817], "includesElement__electron_affinity": [0.618049, 2.077104], "includesElement__electronegativity_allred-rochow": [7.3492e-05, 0.0005137148], "includesElement__electronegativity_cottrell-sutton": [0.09886575, 0.2300274], "includesElement__electronegativity_ghosh": [0.105093, 0.23596], "includesElement__electronegativity_gordy": [0.009774436, 0.05291262], "includesElement__electronegativity_mulliken": [3.004882, 6.218557], "includesElement__electronegativity_nagle": [0.1826499, 0.6762644], "includesElement__electronegativity_pauling": [0.98, 2.58], "includesElement__electronegativity_sanderson": [0.04886793, 0.6397251], "includesElement__en_ghosh": [0.105093, 0.23596], "includesElement__en_pauling": [0.98, 2.58], "includesElement__evaporation_heat": [148.0, 10.5], "includesElement__fusion_heat": [2.89, 1.23], "includesElement__glawe_number": [12, 96], "includesElement__group_id": [1, 16], "includesElement__heat_of_formation": [159.3, 277.17], "includesElement__is_radioactive": [false], "includesElement__lattice_constant": [3.49, 10.47], "includesElement__mendeleev_number": [1, 100], "includesElement__molar_heat_capacity": [24.86, 22.7], "includesElement__period": [2, 3], "includesElement__pettifor_number": [12, 94], "includesElement__specific_heat_capacity": [3.582, 0.708], "includesElement__vdw_radius": [182.0, 180.0], "includesElement__vdw_radius_alvarez": [212.0, 189.0], "includesElement__vdw_radius_mm3": [255.0, 215.0], "includesElement__vdw_radius_uff": [245.1, 403.5], "includesElement__abundance_sea": [0.18, 905.0], "includesElement__c6_gb": [1410.0, 140.0], "includesElement__covalent_radius_bragg": [150.0, 102.0], "includesElement__electronegativity_allen": [5.392, 15.31], "includesElement__en_allen": [5.392, 15.31], "includesElement__metallic_radius": [123.0, 104.0], "includesElement__metallic_radius_c12": [155.0, 127.0], "includesElement__thermal_conductivity": [84.8, 0.27], "includesElement__vdw_radius_batsanov": [220.0, 180.0], "includesElement__c6": [1392.0, 134.0], "includesElement__vdw_radius_bondi": [181.0, 180.0], "includesElement__covalent_radius_pyykko_triple": [95.0], "includesElement__vdw_radius_dreiding": [403.0], "includesElement__gas_basicity": [640.2], "includesElement__proton_affinity": [664.3], "includesElement__vdw_radius_rt": [181.0], "formula": ["Li2S1"], "spacegroup": ["225"], "thermalConductivity": [9.92894], "icsd": ["54396"], "band_gap": [3.3862], "density": [1.67394], "density_atomic": [15.19305], "deprecated": [false], "efermi": [0.7595844], "energy_above_hull": [0.0], "energy_per_atom": [-5.794963], "formation_energy_per_atom": [-1.525493], "homogeneous_poisson": [0.173], "is_gap_direct": [false], "is_magnetic": [false], "is_metal": [false], "is_stable": [true], "nelements": [2], "nsites": [3], "num_magnetic_sites": [0], "num_unique_magnetic_sites": [0], "theoretical": [false], "total_magnetization": [0.0], "total_magnetization_normalized_formula_units": [0.0], "total_magnetization_normalized_vol": [0.0], "uncorrected_energy_per_atom": [-5.794963], "universal_anisotropy": [0.009], "volume": [45.57916], "cbm": [4.033], "e_electronic": [3.864172], "e_ionic": [3.557968], "e_total": [7.422141], "equilibrium_reaction_energy_per_atom": [-1.525493], "n": [1.96575], "vbm": [0.6468]}