{"includesElement": ["", "Na"], "includesElement___series_id": [3], "includesElement__abundance_crust": [23600.0], "includesElement__atomic_number": [11], "includesElement__atomic_radius": [180.0], "includesElement__atomic_radius_rahm": [225.0], "includesElement__atomic_volume": [23.7], "includesElement__atomic_weight": [22.98977], "includesElement__covalent_radius_cordero": [166.0], "includesElement__covalent_radius_pyykko": [155.0], "includesElement__covalent_radius_pyykko_double": [160.0], "includesElement__density": [0.97], "includesElement__dipole_polarizability": [162.7], "includesElement__dipole_polarizability_unc": [0.5], "includesElement__discovery_year": [1807], "includesElement__electron_affinity": [0.547926], "includesElement__electronegativity_allred-rochow": [9.157128e-05], "includesElement__electronegativity_cottrell-sutton": [0.1191367], "includesElement__electronegativity_ghosh": [0.093214], "includesElement__electronegativity_gordy": [0.01419355], "includesElement__electronegativity_mulliken": [2.843501], "includesElement__electronegativity_nagle": [0.1831769], "includesElement__electronegativity_pauling": [0.93], "includesElement__electronegativity_sanderson": [0.09459764], "includesElement__en_ghosh": [0.093214], "includesElement__en_pauling": [0.93], "includesElement__evaporation_heat": [97.9], "includesElement__fusion_heat": [2.64], "includesElement__glawe_number": [11], "includesElement__group_id": [1], "includesElement__heat_of_formation": [107.5], "includesElement__is_radioactive": [false], "includesElement__lattice_constant": [4.23], "includesElement__mendeleev_number": [2], "includesElement__molar_heat_capacity": [28.23], "includesElement__period": [3], "includesElement__pettifor_number": [11], "includesElement__specific_heat_capacity": [1.228], "includesElement__vdw_radius": [227.0], "includesElement__vdw_radius_alvarez": [250.0], "includesElement__vdw_radius_mm3": [270.0], "includesElement__vdw_radius_uff": [298.3], "includesElement__abundance_sea": [10800.0], "includesElement__atomic_weight_uncertainty": [2e-08], "includesElement__c6_gb": [1570.0], "includesElement__covalent_radius_bragg": [177.0], "includesElement__electronegativity_allen": [5.14], "includesElement__en_allen": [5.14], "includesElement__metallic_radius": [157.0], "includesElement__metallic_radius_c12": [190.0], "includesElement__thermal_conductivity": [142.0], "includesElement__vdw_radius_batsanov": [240.0], "includesElement__c6": [1518.0], "includesElement__is_monoisotopic": [true], "includesElement__vdw_radius_bondi": [227.0], "formula": ["Na2"], "spacegroup": ["194"], "thermalConductivity": [1.03373], "icsd": ["44758"], "band_gap": [0.0], "density": [1.033494], "density_atomic": [36.9382], "deprecated": [false], "efermi": [0.6841109], "energy_above_hull": [0.0], "energy_per_atom": [-3.564181], "formation_energy_per_atom": [0.0], "has_reconstructed": [false], "homogeneous_poisson": [0.254], "is_gap_direct": [false], "is_magnetic": [false], "is_metal": [true], "is_stable": [true], "nelements": [1], "nsites": [2], "num_magnetic_sites": [0], "num_unique_magnetic_sites": [0], "shape_factor": [5.121373], "surface_anisotropy": [0.05967485], "theoretical": [false], "total_magnetization": [5e-07], "total_magnetization_normalized_formula_units": [2.5e-07], "total_magnetization_normalized_vol": [6.768062e-09], "uncorrected_energy_per_atom": [-3.564181], "universal_anisotropy": [1.074], "volume": [73.87639], "weighted_surface_energy": [0.2119409], "weighted_surface_energy_EV_PER_ANG2": [0.01322831], "weighted_work_function": [2.654057], "equilibrium_reaction_energy_per_atom": [0.0]}