{"includesElement": ["", "Ce"], "includesElement___series_id": [9], "includesElement__abundance_crust": [66.5], "includesElement__atomic_number": [58], "includesElement__atomic_radius": [185.0], "includesElement__atomic_radius_rahm": [282.0], "includesElement__atomic_volume": [21.0], "includesElement__atomic_weight": [140.116], "includesElement__covalent_radius_cordero": [204.0], "includesElement__covalent_radius_pyykko": [163.0], "includesElement__covalent_radius_pyykko_double": [137.0], "includesElement__covalent_radius_pyykko_triple": [131.0], "includesElement__density": [6.77], "includesElement__dipole_polarizability": [205.0], "includesElement__dipole_polarizability_unc": [20.0], "includesElement__discovery_year": [1803], "includesElement__electron_affinity": [0.65], "includesElement__electronegativity_allred-rochow": [0.0001129135], "includesElement__electronegativity_cottrell-sutton": [0.1356647], "includesElement__electronegativity_ghosh": [0.16761], "includesElement__electronegativity_gordy": [0.01840491], "includesElement__electronegativity_mulliken": [3.0943], "includesElement__electronegativity_nagle": [0.2692167], "includesElement__electronegativity_pauling": [1.12], "includesElement__electronegativity_sanderson": [0.5356179], "includesElement__en_ghosh": [0.16761], "includesElement__en_pauling": [1.12], "includesElement__evaporation_heat": [398.0], "includesElement__fusion_heat": [5.2], "includesElement__glawe_number": [31], "includesElement__heat_of_formation": [420.1], "includesElement__is_radioactive": [false], "includesElement__lattice_constant": [5.16], "includesElement__mendeleev_number": [15], "includesElement__molar_heat_capacity": [26.94], "includesElement__period": [6], "includesElement__pettifor_number": [32], "includesElement__specific_heat_capacity": [0.192], "includesElement__vdw_radius": [242.0], "includesElement__vdw_radius_alvarez": [288.0], "includesElement__vdw_radius_mm3": [274.0], "includesElement__vdw_radius_uff": [355.6], "includesElement__abundance_sea": [1.2e-06], "includesElement__atomic_weight_uncertainty": [0.001], "includesElement__c6_gb": [3480.0], "includesElement__thermal_conductivity": [11.3], "formula": ["Ce2"], "spacegroup": ["225"], "thermalConductivity": [3.50088], "icsd": ["2284"], "band_gap": [0.0], "density": [9.159578], "density_atomic": [25.40162], "deprecated": [false], "efermi": [9.695395], "energy_above_hull": [0.003860715], "energy_per_atom": [-30.83677], "formation_energy_per_atom": [0.003860715], "has_reconstructed": [false], "is_gap_direct": [false], "is_magnetic": [false], "is_metal": [true], "is_stable": [false], "nelements": [1], "nsites": [2], "num_magnetic_sites": [0], "num_unique_magnetic_sites": [0], "theoretical": [false], "total_magnetization": [1.4e-06], "total_magnetization_normalized_formula_units": [7e-07], "total_magnetization_normalized_vol": [2.75573e-08], "uncorrected_energy_per_atom": [-30.83677], "volume": [50.80323]}