{"includesElement": ["", "Ti", "Mo"], "includesElement___series_id": [8], "includesElement__abundance_crust": [5650.0, 1.2], "includesElement__atomic_number": [22, 42], "includesElement__atomic_radius": [140.0, 145.0], "includesElement__atomic_radius_rahm": [257.0, 244.0], "includesElement__atomic_volume": [10.6, 9.4], "includesElement__atomic_weight": [47.867, 95.95], "includesElement__covalent_radius_cordero": [160.0, 154.0], "includesElement__covalent_radius_pyykko": [136.0, 138.0], "includesElement__covalent_radius_pyykko_double": [117.0, 121.0], "includesElement__covalent_radius_pyykko_triple": [108.0, 113.0], "includesElement__density": [4.506, 10.2], "includesElement__dipole_polarizability": [100.0, 87.0], "includesElement__dipole_polarizability_unc": [10.0, 6.0], "includesElement__discovery_year": [1791, 1778], "includesElement__electron_affinity": [0.079, 0.748], "includesElement__electronegativity_allred-rochow": [0.0001703071, 0.0001549044], "includesElement__electronegativity_cottrell-sutton": [0.1521899, 0.1462081], "includesElement__electronegativity_ghosh": [0.1233637, 0.1312672], "includesElement__electronegativity_gordy": [0.02316176, 0.02137681], "includesElement__electronegativity_mulliken": [3.45356, 3.920215], "includesElement__electronegativity_nagle": [0.3419952, 0.4100883], "includesElement__electronegativity_pauling": [1.54, 2.16], "includesElement__electronegativity_sanderson": [0.4055462, 0.685295], "includesElement__en_ghosh": [0.1233637, 0.1312672], "includesElement__en_pauling": [1.54, 2.16], "includesElement__evaporation_heat": [422.6, 590.0], "includesElement__fusion_heat": [18.8, 28.0], "includesElement__glawe_number": [51, 56], "includesElement__group_id": [4, 6], "includesElement__heat_of_formation": [473.0, 658.98], "includesElement__is_radioactive": [false], "includesElement__lattice_constant": [2.95, 3.15], "includesElement__mendeleev_number": [43, 52], "includesElement__molar_heat_capacity": [25.06, 24.06], "includesElement__period": [4, 5], "includesElement__pettifor_number": [51, 55], "includesElement__specific_heat_capacity": [0.523, 0.251], "includesElement__vdw_radius": [211.0, 217.0], "includesElement__vdw_radius_alvarez": [246.0, 245.0], "includesElement__vdw_radius_mm3": [239.0], "includesElement__vdw_radius_uff": [317.5, 305.2], "includesElement__abundance_sea": [0.001, 0.01], "includesElement__atomic_weight_uncertainty": [0.001, 0.01], "includesElement__c6_gb": [1200.0, 1030.0], "includesElement__covalent_radius_bragg": [140.0], "includesElement__electronegativity_allen": [8.17, 8.71], "includesElement__en_allen": [8.17, 8.71], "includesElement__metallic_radius": [132.0, 130.0], "includesElement__metallic_radius_c12": [147.0, 139.0], "includesElement__thermal_conductivity": [21.9], "includesElement__vdw_radius_batsanov": [215.0, 210.0], "includesElement__c6": [1044.0], "includesElement__gas_basicity": [853.7], "includesElement__proton_affinity": [876.0], "formula": ["Mo3Ti1"], "spacegroup": ["71"], "thermalConductivity": [15.7528], "icsd": ["168952"], "band_gap": [0.0], "density": [8.901367], "density_atomic": [15.6555], "deprecated": [false], "efermi": [7.604264], "energy_above_hull": [0.0], "energy_per_atom": [-22.92291], "formation_energy_per_atom": [-0.1344864], "is_gap_direct": [false], "is_magnetic": [false], "is_metal": [true], "is_stable": [true], "nelements": [2], "nsites": [4], "num_magnetic_sites": [0], "num_unique_magnetic_sites": [0], "theoretical": [true], "total_magnetization": [3e-07], "total_magnetization_normalized_formula_units": [3e-07], "total_magnetization_normalized_vol": [4.790649e-09], "uncorrected_energy_per_atom": [-22.92291], "volume": [62.622], "equilibrium_reaction_energy_per_atom": [-0.1344864]}