{"includesElement": ["", "S", "Fe"], "includesElement___series_id": [1, 8], "includesElement__abundance_crust": [350.0, 56300.0], "includesElement__atomic_number": [16, 26], "includesElement__atomic_radius": [100.0, 140.0], "includesElement__atomic_radius_rahm": [214.0, 237.0], "includesElement__atomic_volume": [15.5, 7.1], "includesElement__atomic_weight": [32.06, 55.845], "includesElement__covalent_radius_cordero": [105.0, 142.0], "includesElement__covalent_radius_pyykko": [103.0, 116.0], "includesElement__covalent_radius_pyykko_double": [94.0, 109.0], "includesElement__covalent_radius_pyykko_triple": [95.0, 102.0], "includesElement__density": [2.07, 7.87], "includesElement__dipole_polarizability": [19.4, 62.0], "includesElement__dipole_polarizability_unc": [0.1, 4.0], "includesElement__electron_affinity": [2.077104, 0.151], "includesElement__electronegativity_allred-rochow": [0.0005137148, 0.0002786861], "includesElement__electronegativity_cottrell-sutton": [0.2300274, 0.1797987], "includesElement__electronegativity_ghosh": [0.23596, 0.1392532], "includesElement__electronegativity_gordy": [0.05291262, 0.03232759], "includesElement__electronegativity_mulliken": [6.218557, 4.026734], "includesElement__electronegativity_nagle": [0.6762644, 0.5053195], "includesElement__electronegativity_pauling": [2.58, 1.83], "includesElement__electronegativity_sanderson": [0.6397251, 0.748727], "includesElement__en_ghosh": [0.23596, 0.1392532], "includesElement__en_pauling": [2.58, 1.83], "includesElement__evaporation_heat": [10.5, 340.0], "includesElement__fusion_heat": [1.23, 13.8], "includesElement__glawe_number": [96, 71], "includesElement__group_id": [16, 8], "includesElement__heat_of_formation": [277.17, 415.5], "includesElement__is_radioactive": [false], "includesElement__lattice_constant": [10.47, 2.87], "includesElement__mendeleev_number": [100, 59], "includesElement__molar_heat_capacity": [22.7, 25.1], "includesElement__period": [3, 4], "includesElement__pettifor_number": [94, 61], "includesElement__specific_heat_capacity": [0.708, 0.449], "includesElement__vdw_radius": [180.0, 204.0], "includesElement__vdw_radius_alvarez": [189.0, 244.0], "includesElement__vdw_radius_mm3": [215.0, 223.0], "includesElement__vdw_radius_uff": [403.5, 291.2], "includesElement__abundance_sea": [905.0, 0.002], "includesElement__c6_gb": [140.0, 548.0], "includesElement__covalent_radius_bragg": [102.0, 140.0], "includesElement__electronegativity_allen": [15.31, 10.64], "includesElement__en_allen": [15.31, 10.64], "includesElement__metallic_radius": [104.0, 117.0], "includesElement__metallic_radius_c12": [127.0, 126.0], "includesElement__thermal_conductivity": [0.27, 80.4], "includesElement__vdw_radius_batsanov": [180.0, 205.0], "includesElement__c6": [134.0, 482.0], "includesElement__vdw_radius_dreiding": [403.0], "includesElement__gas_basicity": [640.2, 731.1], "includesElement__proton_affinity": [664.3, 754.0], "includesElement__vdw_radius_bondi": [180.0], "includesElement__vdw_radius_rt": [181.0], "includesElement__atomic_weight_uncertainty": [0.002], "formula": ["Fe4S8"], "spacegroup": ["205"], "thermalConductivity": [10.2701], "icsd": ["10422"], "band_gap": [0.4572], "density": [5.069733], "density_atomic": [13.09886], "deprecated": [false], "efermi": [7.889741], "energy_above_hull": [0.01005867], "energy_per_atom": [-6.419024], "formation_energy_per_atom": [-0.8367771], "homogeneous_poisson": [0.146], "is_gap_direct": [false], "is_magnetic": [false], "is_metal": [false], "is_stable": [false], "nelements": [2], "nsites": [12], "num_magnetic_sites": [0], "num_unique_magnetic_sites": [0], "theoretical": [false], "total_magnetization": [0.0], "total_magnetization_normalized_formula_units": [0.0], "total_magnetization_normalized_vol": [0.0], "uncorrected_energy_per_atom": [-10.6495], "universal_anisotropy": [0.29], "volume": [157.1863], "cbm": [8.1853], "e_electronic": [21.20113], "e_ionic": [7.026286], "e_total": [28.22741], "n": [4.604468], "vbm": [7.7281]}