{"includesElement": ["", "S", "Th"], "includesElement___series_id": [1, 10], "includesElement__abundance_crust": [350.0, 9.6], "includesElement__atomic_number": [16, 90], "includesElement__atomic_radius": [100.0, 180.0], "includesElement__atomic_radius_rahm": [214.0, 288.0], "includesElement__atomic_volume": [15.5, 19.8], "includesElement__atomic_weight": [32.06, 232.0377], "includesElement__covalent_radius_cordero": [105.0, 206.0], "includesElement__covalent_radius_pyykko": [103.0, 175.0], "includesElement__covalent_radius_pyykko_double": [94.0, 143.0], "includesElement__covalent_radius_pyykko_triple": [95.0, 136.0], "includesElement__density": [2.07, 11.7], "includesElement__dipole_polarizability": [19.4, 217.0], "includesElement__dipole_polarizability_unc": [0.1, 54.0], "includesElement__electron_affinity": [2.077104], "includesElement__electronegativity_allred-rochow": [0.0005137148, 0.0001028571], "includesElement__electronegativity_cottrell-sutton": [0.2300274, 0.1341641], "includesElement__electronegativity_ghosh": [0.23596, 0.10277], "includesElement__electronegativity_gordy": [0.05291262, 0.018], "includesElement__electronegativity_mulliken": [6.218557, 3.15335], "includesElement__electronegativity_nagle": [0.6762644, 0.2641598], "includesElement__electronegativity_pauling": [2.58, 1.3], "includesElement__electronegativity_sanderson": [0.6397251, 0.5557019], "includesElement__en_ghosh": [0.23596, 0.10277], "includesElement__en_pauling": [2.58, 1.3], "includesElement__evaporation_heat": [10.5, 513.7], "includesElement__fusion_heat": [1.23, 16.11], "includesElement__glawe_number": [96, 34], "includesElement__group_id": [16], "includesElement__heat_of_formation": [277.17, 602.0], "includesElement__is_radioactive": [false, true], "includesElement__lattice_constant": [10.47, 5.08], "includesElement__mendeleev_number": [100, 16], "includesElement__molar_heat_capacity": [22.7, 27.32], "includesElement__period": [3, 7], "includesElement__pettifor_number": [94, 47], "includesElement__specific_heat_capacity": [0.708, 0.118], "includesElement__vdw_radius": [180.0, 245.0], "includesElement__vdw_radius_alvarez": [189.0, 293.0], "includesElement__vdw_radius_mm3": [215.0, 274.0], "includesElement__vdw_radius_uff": [403.5, 339.6], "includesElement__abundance_sea": [905.0, 1e-06], "includesElement__c6_gb": [140.0], "includesElement__covalent_radius_bragg": [102.0], "includesElement__electronegativity_allen": [15.31], "includesElement__en_allen": [15.31], "includesElement__metallic_radius": [104.0], "includesElement__metallic_radius_c12": [127.0], "includesElement__thermal_conductivity": [0.27], "includesElement__vdw_radius_batsanov": [180.0, 240.0], "includesElement__c6": [134.0], "includesElement__vdw_radius_dreiding": [403.0], "includesElement__gas_basicity": [640.2], "includesElement__proton_affinity": [664.3], "includesElement__vdw_radius_bondi": [180.0], "includesElement__vdw_radius_rt": [181.0], "includesElement__discovery_year": [1828], "includesElement__atomic_weight_uncertainty": [0.0004], "formula": ["S8Th4"], "spacegroup": ["62"], "thermalConductivity": [2.2684], "icsd": ["651152"], "band_gap": [1.0336], "density": [7.252512], "density_atomic": [22.6036], "deprecated": [false], "efermi": [6.438171], "energy_above_hull": [0.0], "energy_per_atom": [-32.13259], "formation_energy_per_atom": [-2.284166], "homogeneous_poisson": [0.336], "is_gap_direct": [true], "is_magnetic": [false], "is_metal": [false], "is_stable": [true], "nelements": [2], "nsites": [12], "num_magnetic_sites": [0], "num_unique_magnetic_sites": [0], "theoretical": [false], "total_magnetization": [0.0], "total_magnetization_normalized_formula_units": [0.0], "total_magnetization_normalized_vol": [0.0], "uncorrected_energy_per_atom": [-32.13259], "universal_anisotropy": [0.525], "volume": [271.2432], "cbm": [7.3434], "equilibrium_reaction_energy_per_atom": [-0.1324345], "vbm": [6.3098]}