{"includesElement": ["", "Cu"], "includesElement___series_id": [8], "includesElement__abundance_crust": [60.0], "includesElement__atomic_number": [29], "includesElement__atomic_radius": [135.0], "includesElement__atomic_radius_rahm": [217.0], "includesElement__atomic_volume": [7.1], "includesElement__atomic_weight": [63.546], "includesElement__covalent_radius_cordero": [132.0], "includesElement__covalent_radius_pyykko": [112.0], "includesElement__covalent_radius_pyykko_double": [115.0], "includesElement__covalent_radius_pyykko_triple": [120.0], "includesElement__density": [8.96], "includesElement__dipole_polarizability": [46.5], "includesElement__dipole_polarizability_unc": [0.5], "includesElement__electron_affinity": [1.235], "includesElement__electronegativity_allred-rochow": [0.0002949617], "includesElement__electronegativity_cottrell-sutton": [0.1817573], "includesElement__electronegativity_ghosh": [0.1511716], "includesElement__electronegativity_gordy": [0.03303571], "includesElement__electronegativity_mulliken": [4.48069], "includesElement__electronegativity_nagle": [0.6184623], "includesElement__electronegativity_pauling": [1.9], "includesElement__electronegativity_sanderson": [0.9175542], "includesElement__en_ghosh": [0.1511716], "includesElement__en_pauling": [1.9], "includesElement__evaporation_heat": [304.6], "includesElement__fusion_heat": [13.01], "includesElement__glawe_number": [68], "includesElement__group_id": [11], "includesElement__heat_of_formation": [337.4], "includesElement__is_radioactive": [false], "includesElement__lattice_constant": [3.61], "includesElement__mendeleev_number": [71], "includesElement__molar_heat_capacity": [24.44], "includesElement__period": [4], "includesElement__pettifor_number": [72], "includesElement__specific_heat_capacity": [0.385], "includesElement__vdw_radius": [196.0], "includesElement__vdw_radius_alvarez": [238.0], "includesElement__vdw_radius_mm3": [226.0], "includesElement__vdw_radius_uff": [349.5], "includesElement__abundance_sea": [0.00025], "includesElement__atomic_weight_uncertainty": [0.003], "includesElement__c6_gb": [264.0], "includesElement__covalent_radius_bragg": [137.0], "includesElement__electronegativity_allen": [10.96], "includesElement__en_allen": [10.96], "includesElement__metallic_radius": [118.0], "includesElement__metallic_radius_c12": [128.0], "includesElement__thermal_conductivity": [401.0], "includesElement__vdw_radius_batsanov": [200.0], "includesElement__c6": [253.0], "includesElement__gas_basicity": [632.4], "includesElement__proton_affinity": [655.3], "formula": ["Cu1"], "spacegroup": ["229"], "thermalConductivity": [16.4319], "icsd": ["183263"], "band_gap": [0.0], "density": [9.209264], "density_atomic": [11.45809], "deprecated": [false], "efermi": [7.692372], "energy_above_hull": [0.03306618], "energy_per_atom": [-10.81373], "formation_energy_per_atom": [0.03306618], "homogeneous_poisson": [0.433], "is_gap_direct": [false], "is_magnetic": [false], "is_metal": [true], "is_stable": [false], "nelements": [1], "nsites": [1], "num_magnetic_sites": [0], "num_unique_magnetic_sites": [0], "theoretical": [true], "total_magnetization": [0.0], "total_magnetization_normalized_formula_units": [0.0], "total_magnetization_normalized_vol": [0.0], "uncorrected_energy_per_atom": [-10.81373], "universal_anisotropy": [-18.662], "volume": [11.45809]}