{"includesElement": ["", "Na", "O"], "includesElement___series_id": [3, 1], "includesElement__abundance_crust": [23600.0, 461000.0], "includesElement__atomic_number": [11, 8], "includesElement__atomic_radius": [180.0, 60.0], "includesElement__atomic_radius_rahm": [225.0, 171.0], "includesElement__atomic_volume": [23.7, 14.0], "includesElement__atomic_weight": [22.98977, 15.999], "includesElement__covalent_radius_cordero": [166.0, 66.0], "includesElement__covalent_radius_pyykko": [155.0, 63.0], "includesElement__covalent_radius_pyykko_double": [160.0, 57.0], "includesElement__density": [0.97, 0.001308], "includesElement__dipole_polarizability": [162.7, 5.3], "includesElement__dipole_polarizability_unc": [0.5, 0.2], "includesElement__discovery_year": [1807, 1774], "includesElement__electron_affinity": [0.547926, 1.461113], "includesElement__electronegativity_allred-rochow": [9.157128e-05, 0.001146384], "includesElement__electronegativity_cottrell-sutton": [0.1191367, 0.2687419], "includesElement__electronegativity_ghosh": [0.093214, 0.304575], "includesElement__electronegativity_gordy": [0.01419355, 0.07222222], "includesElement__electronegativity_mulliken": [2.843501, 7.539584], "includesElement__electronegativity_nagle": [0.1831769, 1.042218], "includesElement__electronegativity_pauling": [0.93, 3.44], "includesElement__electronegativity_sanderson": [0.09459764, 0.9416494], "includesElement__en_ghosh": [0.093214, 0.304575], "includesElement__en_pauling": [0.93, 3.44], "includesElement__evaporation_heat": [97.9], "includesElement__fusion_heat": [2.64], "includesElement__glawe_number": [11, 97], "includesElement__group_id": [1, 16], "includesElement__heat_of_formation": [107.5, 249.229], "includesElement__is_radioactive": [false], "includesElement__lattice_constant": [4.23, 6.83], "includesElement__mendeleev_number": [2, 99], "includesElement__molar_heat_capacity": [28.23, 29.378], "includesElement__period": [3, 2], "includesElement__pettifor_number": [11, 101], "includesElement__specific_heat_capacity": [1.228, 0.918], "includesElement__vdw_radius": [227.0, 152.0], "includesElement__vdw_radius_alvarez": [250.0, 150.0], "includesElement__vdw_radius_mm3": [270.0, 182.0], "includesElement__vdw_radius_uff": [298.3, 350.0], "includesElement__abundance_sea": [10800.0, 857000.0], "includesElement__atomic_weight_uncertainty": [2e-08], "includesElement__c6_gb": [1570.0, 16.7], "includesElement__covalent_radius_bragg": [177.0, 65.0], "includesElement__electronegativity_allen": [5.14, 21.36], "includesElement__en_allen": [5.14, 21.36], "includesElement__metallic_radius": [157.0], "includesElement__metallic_radius_c12": [190.0], "includesElement__thermal_conductivity": [142.0, 0.027], "includesElement__vdw_radius_batsanov": [240.0, 155.0], "includesElement__c6": [1518.0, 15.6], "includesElement__is_monoisotopic": [true], "includesElement__vdw_radius_bondi": [227.0, 152.0], "includesElement__covalent_radius_pyykko_triple": [53.0], "includesElement__vdw_radius_dreiding": [340.46], "includesElement__gas_basicity": [459.6], "includesElement__proton_affinity": [485.2], "includesElement__vdw_radius_rt": [158.0], "formula": ["Na2O4"], "spacegroup": ["58"], "thermalConductivity": [3.22926], "icsd": ["180562"], "band_gap": [0.0], "density": [2.326334], "density_atomic": [13.08363], "deprecated": [false], "efermi": [0.7343725], "energy_above_hull": [0.0], "energy_per_atom": [-6.042092], "formation_energy_per_atom": [-0.8802644], "is_gap_direct": [false], "is_magnetic": [true], "is_metal": [true], "is_stable": [true], "nelements": [2], "nsites": [6], "num_magnetic_sites": [4], "num_unique_magnetic_sites": [1], "theoretical": [false], "total_magnetization": [1.999999], "total_magnetization_normalized_formula_units": [0.9999997], "total_magnetization_normalized_vol": [0.02547713], "uncorrected_energy_per_atom": [-6.042092], "volume": [78.50177], "equilibrium_reaction_energy_per_atom": [-0.05259333]}