{"includesElement": ["", "S", "Sr"], "includesElement___series_id": [1, 4], "includesElement__abundance_crust": [350.0, 370.0], "includesElement__atomic_number": [16, 38], "includesElement__atomic_radius": [100.0, 200.0], "includesElement__atomic_radius_rahm": [214.0, 279.0], "includesElement__atomic_volume": [15.5, 33.7], "includesElement__atomic_weight": [32.06, 87.62], "includesElement__covalent_radius_cordero": [105.0, 195.0], "includesElement__covalent_radius_pyykko": [103.0, 185.0], "includesElement__covalent_radius_pyykko_double": [94.0, 157.0], "includesElement__covalent_radius_pyykko_triple": [95.0, 139.0], "includesElement__density": [2.07, 2.64], "includesElement__dipole_polarizability": [19.4, 197.2], "includesElement__dipole_polarizability_unc": [0.1, 0.2], "includesElement__electron_affinity": [2.077104, 0.048], "includesElement__electronegativity_allred-rochow": [0.0005137148, 8.327246e-05], "includesElement__electronegativity_cottrell-sutton": [0.2300274, 0.1241185], "includesElement__electronegativity_ghosh": [0.23596, 0.1185082], "includesElement__electronegativity_gordy": [0.05291262, 0.01540541], "includesElement__electronegativity_mulliken": [6.218557, 2.871434], "includesElement__electronegativity_nagle": [0.6762644, 0.2164584], "includesElement__electronegativity_pauling": [2.58, 0.95], "includesElement__electronegativity_sanderson": [0.6397251, 0.2631786], "includesElement__en_ghosh": [0.23596, 0.1185082], "includesElement__en_pauling": [2.58, 0.95], "includesElement__evaporation_heat": [10.5, 144.0], "includesElement__fusion_heat": [1.23, 9.2], "includesElement__glawe_number": [96, 15], "includesElement__group_id": [16, 2], "includesElement__heat_of_formation": [277.17, 164.0], "includesElement__is_radioactive": [false], "includesElement__lattice_constant": [10.47, 6.08], "includesElement__mendeleev_number": [100, 8], "includesElement__molar_heat_capacity": [22.7, 26.79], "includesElement__period": [3, 5], "includesElement__pettifor_number": [94, 15], "includesElement__specific_heat_capacity": [0.708, 0.306], "includesElement__vdw_radius": [180.0, 249.0], "includesElement__vdw_radius_alvarez": [189.0, 284.0], "includesElement__vdw_radius_mm3": [215.0, 300.0], "includesElement__vdw_radius_uff": [403.5, 364.1], "includesElement__abundance_sea": [905.0, 7.9], "includesElement__c6_gb": [140.0, 3230.0], "includesElement__covalent_radius_bragg": [102.0, 195.0], "includesElement__electronegativity_allen": [15.31, 5.695], "includesElement__en_allen": [15.31, 5.695], "includesElement__metallic_radius": [104.0, 191.0], "includesElement__metallic_radius_c12": [127.0, 215.0], "includesElement__thermal_conductivity": [0.27], "includesElement__vdw_radius_batsanov": [180.0, 255.0], "includesElement__c6": [134.0, 3175.0], "includesElement__vdw_radius_dreiding": [403.0], "includesElement__gas_basicity": [640.2], "includesElement__proton_affinity": [664.3], "includesElement__vdw_radius_bondi": [180.0], "includesElement__vdw_radius_rt": [181.0], "includesElement__discovery_year": [1790], "includesElement__atomic_weight_uncertainty": [0.01], "includesElement__vdw_radius_truhlar": [249.0], "formula": ["S1Sr1"], "spacegroup": ["225"], "thermalConductivity": [9.4911], "icsd": ["164143"], "band_gap": [2.497], "density": [3.593406], "density_atomic": [27.65366], "deprecated": [false], "efermi": [1.866017], "energy_above_hull": [0.0], "energy_per_atom": [-14.01484], "formation_energy_per_atom": [-2.424509], "homogeneous_poisson": [0.227], "is_gap_direct": [false], "is_magnetic": [false], "is_metal": [false], "is_stable": [true], "nelements": [2], "nsites": [2], "num_magnetic_sites": [0], "num_unique_magnetic_sites": [0], "theoretical": [false], "total_magnetization": [0.0], "total_magnetization_normalized_formula_units": [0.0], "total_magnetization_normalized_vol": [0.0], "uncorrected_energy_per_atom": [-14.01484], "universal_anisotropy": [0.351], "volume": [55.30731], "cbm": [4.2534], "e_electronic": [4.645545], "e_ionic": [7.223598], "e_total": [11.86914], "equilibrium_reaction_energy_per_atom": [-2.424509], "n": [2.155353], "vbm": [1.7564]}