{"includesElement": ["", "S", "Eu"], "includesElement___series_id": [1, 9], "includesElement__abundance_crust": [350.0, 2.0], "includesElement__atomic_number": [16, 63], "includesElement__atomic_radius": [100.0, 185.0], "includesElement__atomic_radius_rahm": [214.0, 280.0], "includesElement__atomic_volume": [15.5, 28.9], "includesElement__atomic_weight": [32.06, 151.964], "includesElement__covalent_radius_cordero": [105.0, 198.0], "includesElement__covalent_radius_pyykko": [103.0, 168.0], "includesElement__covalent_radius_pyykko_double": [94.0, 134.0], "includesElement__covalent_radius_pyykko_triple": [95.0], "includesElement__density": [2.07, 5.24], "includesElement__dipole_polarizability": [19.4, 184.0], "includesElement__dipole_polarizability_unc": [0.1, 20.0], "includesElement__electron_affinity": [2.077104, 0.864], "includesElement__electronegativity_allred-rochow": [0.0005137148, 0.0001009779], "includesElement__electronegativity_cottrell-sutton": [0.2300274, 0.130247], "includesElement__electronegativity_ghosh": [0.23596, 0.189935], "includesElement__electronegativity_gordy": [0.05291262, 0.01696429], "includesElement__electronegativity_mulliken": [6.218557, 3.267192], "includesElement__electronegativity_nagle": [0.6762644, 0.365714], "includesElement__electronegativity_pauling": [2.58], "includesElement__electronegativity_sanderson": [0.6397251, 0.508508], "includesElement__en_ghosh": [0.23596, 0.189935], "includesElement__en_pauling": [2.58], "includesElement__evaporation_heat": [10.5, 176.0], "includesElement__fusion_heat": [1.23], "includesElement__glawe_number": [96, 17], "includesElement__group_id": [16], "includesElement__heat_of_formation": [277.17, 177.4], "includesElement__is_radioactive": [false], "includesElement__lattice_constant": [10.47, 4.61], "includesElement__mendeleev_number": [100, 25], "includesElement__molar_heat_capacity": [22.7, 27.66], "includesElement__period": [3, 6], "includesElement__pettifor_number": [94, 18], "includesElement__specific_heat_capacity": [0.708, 0.182], "includesElement__vdw_radius": [180.0, 235.0], "includesElement__vdw_radius_alvarez": [189.0, 287.0], "includesElement__vdw_radius_mm3": [215.0, 294.0], "includesElement__vdw_radius_uff": [403.5, 349.3], "includesElement__abundance_sea": [905.0, 1.3e-07], "includesElement__c6_gb": [140.0, 2940.0], "includesElement__covalent_radius_bragg": [102.0], "includesElement__electronegativity_allen": [15.31], "includesElement__en_allen": [15.31], "includesElement__metallic_radius": [104.0], "includesElement__metallic_radius_c12": [127.0], "includesElement__thermal_conductivity": [0.27, 13.9], "includesElement__vdw_radius_batsanov": [180.0], "includesElement__c6": [134.0], "includesElement__vdw_radius_dreiding": [403.0], "includesElement__gas_basicity": [640.2], "includesElement__proton_affinity": [664.3], "includesElement__vdw_radius_bondi": [180.0], "includesElement__vdw_radius_rt": [181.0], "includesElement__discovery_year": [1901], "includesElement__atomic_weight_uncertainty": [0.001], "formula": ["Eu1S1"], "spacegroup": ["225"], "thermalConductivity": [9.72875], "icsd": ["183948"], "band_gap": [0.0], "density": [6.005078], "density_atomic": [25.44408], "deprecated": [false], "efermi": [4.662941], "energy_above_hull": [0.0], "energy_per_atom": [-25.74003], "formation_energy_per_atom": [-2.462085], "is_gap_direct": [false], "is_magnetic": [true], "is_metal": [true], "is_stable": [true], "nelements": [2], "nsites": [2], "num_magnetic_sites": [1], "num_unique_magnetic_sites": [1], "theoretical": [false], "total_magnetization": [7.000218], "total_magnetization_normalized_formula_units": [7.000218], "total_magnetization_normalized_vol": [0.1375608], "uncorrected_energy_per_atom": [-25.74003], "volume": [50.88816], "equilibrium_reaction_energy_per_atom": [-0.5892215]}