{"includesElement": ["", "O", "Rb"], "includesElement___series_id": [1, 3], "includesElement__abundance_crust": [461000.0, 90.0], "includesElement__atomic_number": [8, 37], "includesElement__atomic_radius": [60.0, 235.0], "includesElement__atomic_radius_rahm": [171.0, 240.0], "includesElement__atomic_volume": [14.0, 55.9], "includesElement__atomic_weight": [15.999, 85.4678], "includesElement__covalent_radius_cordero": [66.0, 220.0], "includesElement__covalent_radius_pyykko": [63.0, 210.0], "includesElement__covalent_radius_pyykko_double": [57.0, 202.0], "includesElement__covalent_radius_pyykko_triple": [53.0], "includesElement__density": [0.001308, 1.53], "includesElement__dipole_polarizability": [5.3, 319.8], "includesElement__dipole_polarizability_unc": [0.2, 0.3], "includesElement__discovery_year": [1774, 1861], "includesElement__electron_affinity": [1.461113, 0.48592], "includesElement__electronegativity_allred-rochow": [0.001146384, 4.988662e-05], "includesElement__electronegativity_cottrell-sutton": [0.2687419, 0.1023533], "includesElement__electronegativity_ghosh": [0.304575, 0.104686], "includesElement__electronegativity_gordy": [0.07222222, 0.01047619], "includesElement__electronegativity_mulliken": [7.539584, 2.331524], "includesElement__electronegativity_nagle": [1.042218, 0.1462314], "includesElement__electronegativity_pauling": [3.44, 0.82], "includesElement__electronegativity_sanderson": [0.9416494, 0.1764136], "includesElement__en_ghosh": [0.304575, 0.104686], "includesElement__en_pauling": [3.44, 0.82], "includesElement__glawe_number": [97, 9], "includesElement__group_id": [16, 1], "includesElement__heat_of_formation": [249.229, 80.9], "includesElement__is_radioactive": [false], "includesElement__lattice_constant": [6.83, 5.59], "includesElement__mendeleev_number": [99, 4], "includesElement__molar_heat_capacity": [29.378, 31.06], "includesElement__period": [2, 5], "includesElement__pettifor_number": [101, 9], "includesElement__specific_heat_capacity": [0.918, 0.363], "includesElement__vdw_radius": [152.0, 303.0], "includesElement__vdw_radius_alvarez": [150.0, 321.0], "includesElement__vdw_radius_mm3": [182.0, 325.0], "includesElement__vdw_radius_uff": [350.0, 411.4], "includesElement__abundance_sea": [857000.0, 0.12], "includesElement__c6_gb": [16.7, 4660.0], "includesElement__covalent_radius_bragg": [65.0, 225.0], "includesElement__electronegativity_allen": [21.36, 4.177], "includesElement__en_allen": [21.36, 4.177], "includesElement__thermal_conductivity": [0.027, 58.2], "includesElement__vdw_radius_batsanov": [155.0, 290.0], "includesElement__c6": [15.6, 4769.0], "includesElement__vdw_radius_dreiding": [340.46], "includesElement__gas_basicity": [459.6], "includesElement__proton_affinity": [485.2], "includesElement__vdw_radius_bondi": [152.0], "includesElement__vdw_radius_rt": [158.0], "includesElement__evaporation_heat": [75.8], "includesElement__fusion_heat": [2.2], "includesElement__atomic_weight_uncertainty": [0.0003], "includesElement__metallic_radius": [216.0], "includesElement__metallic_radius_c12": [248.0], "includesElement__vdw_radius_truhlar": [303.0], "formula": ["O1Rb2"], "spacegroup": ["225"], "thermalConductivity": [0.70091], "icsd": ["180572"], "band_gap": [1.3192], "density": [4.015077], "density_atomic": [25.7706], "deprecated": [false], "efermi": [0.9648081], "energy_above_hull": [0.003169587], "energy_per_atom": [-3.433009], "formation_energy_per_atom": [-1.128565], "homogeneous_poisson": [0.348], "is_gap_direct": [false], "is_magnetic": [false], "is_metal": [false], "is_stable": [false], "nelements": [2], "nsites": [6], "num_magnetic_sites": [0], "num_unique_magnetic_sites": [0], "theoretical": [false], "total_magnetization": [0.0], "total_magnetization_normalized_formula_units": [0.0], "total_magnetization_normalized_vol": [0.0], "uncorrected_energy_per_atom": [-3.204009], "universal_anisotropy": [8.858], "volume": [154.6236], "cbm": [2.1869], "e_electronic": [3.491425], "e_ionic": [10.61469], "e_total": [14.10611], "n": [1.868536], "vbm": [0.8677]}