{"includesElement": ["", "Re"], "includesElement___series_id": [8], "includesElement__abundance_crust": [0.0007], "includesElement__atomic_number": [75], "includesElement__atomic_radius": [135.0], "includesElement__atomic_radius_rahm": [249.0], "includesElement__atomic_volume": [8.85], "includesElement__atomic_weight": [186.207], "includesElement__covalent_radius_cordero": [151.0], "includesElement__covalent_radius_pyykko": [131.0], "includesElement__covalent_radius_pyykko_double": [119.0], "includesElement__covalent_radius_pyykko_triple": [110.0], "includesElement__density": [20.8], "includesElement__dipole_polarizability": [62.0], "includesElement__dipole_polarizability_unc": [3.0], "includesElement__discovery_year": [1925], "includesElement__electron_affinity": [0.15], "includesElement__electronegativity_allred-rochow": [0.000209778], "includesElement__electronegativity_cottrell-sutton": [0.1657737], "includesElement__electronegativity_ghosh": [0.2435164], "includesElement__electronegativity_gordy": [0.02748092], "includesElement__electronegativity_mulliken": [3.99176], "includesElement__electronegativity_nagle": [0.4833208], "includesElement__electronegativity_pauling": [1.9], "includesElement__electronegativity_sanderson": [1.174592], "includesElement__en_ghosh": [0.2435164], "includesElement__en_pauling": [1.9], "includesElement__evaporation_heat": [704.0], "includesElement__fusion_heat": [34.0], "includesElement__glawe_number": [58], "includesElement__group_id": [7], "includesElement__heat_of_formation": [774.0], "includesElement__is_radioactive": [false], "includesElement__lattice_constant": [2.76], "includesElement__mendeleev_number": [57], "includesElement__molar_heat_capacity": [25.48], "includesElement__period": [6], "includesElement__pettifor_number": [59], "includesElement__specific_heat_capacity": [0.137], "includesElement__vdw_radius": [216.0], "includesElement__vdw_radius_alvarez": [249.0], "includesElement__vdw_radius_mm3": [237.0], "includesElement__vdw_radius_uff": [295.4], "includesElement__abundance_sea": [4e-06], "includesElement__atomic_weight_uncertainty": [0.001], "includesElement__c6_gb": [663.0], "includesElement__electronegativity_allen": [9.46], "includesElement__en_allen": [9.46], "includesElement__metallic_radius": [128.0], "includesElement__metallic_radius_c12": [137.0], "includesElement__thermal_conductivity": [48.0], "includesElement__vdw_radius_batsanov": [205.0], "formula": ["Re2"], "spacegroup": ["194"], "thermalConductivity": [35.0688], "icsd": ["109248"], "band_gap": [0.0], "density": [20.87342], "density_atomic": [14.81329], "deprecated": [false], "efermi": [7.099294], "energy_above_hull": [0.003587022], "energy_per_atom": [-52.40703], "formation_energy_per_atom": [0.003587022], "has_reconstructed": [false], "homogeneous_poisson": [0.3], "is_gap_direct": [false], "is_magnetic": [false], "is_metal": [true], "is_stable": [false], "nelements": [1], "nsites": [2], "num_magnetic_sites": [0], "num_unique_magnetic_sites": [0], "shape_factor": [5.137716], "surface_anisotropy": [0.09588239], "theoretical": [false], "total_magnetization": [4.4e-06], "total_magnetization_normalized_formula_units": [2.2e-06], "total_magnetization_normalized_vol": [1.485153e-07], "uncorrected_energy_per_atom": [-52.40703], "universal_anisotropy": [0.087], "volume": [29.62658], "weighted_surface_energy": [2.967729], "weighted_surface_energy_EV_PER_ANG2": [0.1852311], "weighted_work_function": [4.552203]}