{"includesElement": ["", "P", "Mo"], "includesElement___series_id": [1, 8], "includesElement__abundance_crust": [1050.0, 1.2], "includesElement__atomic_number": [15, 42], "includesElement__atomic_radius": [100.0, 145.0], "includesElement__atomic_radius_rahm": [223.0, 244.0], "includesElement__atomic_volume": [17.0, 9.4], "includesElement__atomic_weight": [30.97376, 95.95], "includesElement__covalent_radius_cordero": [107.0, 154.0], "includesElement__covalent_radius_pyykko": [111.0, 138.0], "includesElement__covalent_radius_pyykko_double": [102.0, 121.0], "includesElement__covalent_radius_pyykko_triple": [94.0, 113.0], "includesElement__density": [1.823, 10.2], "includesElement__dipole_polarizability": [25.0, 87.0], "includesElement__dipole_polarizability_unc": [1.0, 6.0], "includesElement__discovery_year": [1669, 1778], "includesElement__electron_affinity": [0.746607, 0.748], "includesElement__electronegativity_allred-rochow": [0.0003895788, 0.0001549044], "includesElement__electronegativity_cottrell-sutton": [0.2079501, 0.1462081], "includesElement__electronegativity_ghosh": [0.206931, 0.1312672], "includesElement__electronegativity_gordy": [0.04324324, 0.02137681], "includesElement__electronegativity_mulliken": [5.616646, 3.920215], "includesElement__electronegativity_nagle": [0.5848035, 0.4100883], "includesElement__electronegativity_pauling": [2.19, 2.16], "includesElement__electronegativity_sanderson": [0.4510269, 0.685295], "includesElement__en_ghosh": [0.206931, 0.1312672], "includesElement__en_pauling": [2.19, 2.16], "includesElement__evaporation_heat": [49.8, 590.0], "includesElement__fusion_heat": [2.51, 28.0], "includesElement__glawe_number": [89, 56], "includesElement__group_id": [15, 6], "includesElement__heat_of_formation": [316.5, 658.98], "includesElement__is_radioactive": [false], "includesElement__lattice_constant": [7.17, 3.15], "includesElement__mendeleev_number": [94, 52], "includesElement__molar_heat_capacity": [23.824, 24.06], "includesElement__period": [3, 5], "includesElement__pettifor_number": [90, 55], "includesElement__specific_heat_capacity": [0.769, 0.251], "includesElement__vdw_radius": [180.0, 217.0], "includesElement__vdw_radius_alvarez": [190.0, 245.0], "includesElement__vdw_radius_mm3": [222.0, 239.0], "includesElement__vdw_radius_uff": [414.7, 305.2], "includesElement__abundance_sea": [0.06, 0.01], "includesElement__atomic_weight_uncertainty": [5e-09, 0.01], "includesElement__c6_gb": [187.0, 1030.0], "includesElement__electronegativity_allen": [13.33, 8.71], "includesElement__en_allen": [13.33, 8.71], "includesElement__metallic_radius": [110.0, 130.0], "includesElement__metallic_radius_c12": [128.0, 139.0], "includesElement__vdw_radius_batsanov": [195.0, 210.0], "includesElement__c6": [185.0], "includesElement__is_monoisotopic": [true], "includesElement__vdw_radius_dreiding": [415.0], "includesElement__gas_basicity": [604.8], "includesElement__proton_affinity": [626.8], "includesElement__vdw_radius_bondi": [180.0], "formula": ["Mo2P4"], "spacegroup": ["36"], "thermalConductivity": [22.4828], "icsd": ["37222"], "band_gap": [0.0], "density": [5.928141], "density_atomic": [14.74203], "deprecated": [false], "efermi": [9.235221], "energy_above_hull": [0.0], "energy_per_atom": [-15.23416], "formation_energy_per_atom": [-0.5421201], "is_gap_direct": [false], "is_magnetic": [false], "is_metal": [true], "is_stable": [true], "nelements": [2], "nsites": [6], "num_magnetic_sites": [0], "num_unique_magnetic_sites": [0], "theoretical": [false], "total_magnetization": [0.0], "total_magnetization_normalized_formula_units": [0.0], "total_magnetization_normalized_vol": [0.0], "uncorrected_energy_per_atom": [-15.23416], "volume": [88.45215], "equilibrium_reaction_energy_per_atom": [-0.02175291]}