{"includesElement": ["", "S", "Yb"], "includesElement___series_id": [1, 9], "includesElement__abundance_crust": [350.0, 3.2], "includesElement__atomic_number": [16, 70], "includesElement__atomic_radius": [100.0, 175.0], "includesElement__atomic_radius_rahm": [214.0, 277.0], "includesElement__atomic_volume": [15.5, 24.8], "includesElement__atomic_weight": [32.06, 173.045], "includesElement__covalent_radius_cordero": [105.0, 187.0], "includesElement__covalent_radius_pyykko": [103.0, 170.0], "includesElement__covalent_radius_pyykko_double": [94.0, 129.0], "includesElement__covalent_radius_pyykko_triple": [95.0], "includesElement__density": [2.07, 6.9], "includesElement__dipole_polarizability": [19.4, 139.0], "includesElement__dipole_polarizability_unc": [0.1, 6.0], "includesElement__electron_affinity": [2.077104, -0.02], "includesElement__electronegativity_allred-rochow": [0.0005137148, 9.861592e-05], "includesElement__electronegativity_cottrell-sutton": [0.2300274, 0.1294786], "includesElement__electronegativity_ghosh": [0.23596, 0.22119], "includesElement__electronegativity_gordy": [0.05291262, 0.01676471], "includesElement__electronegativity_mulliken": [6.218557, 3.11708], "includesElement__electronegativity_nagle": [0.6762644, 0.4864465], "includesElement__electronegativity_pauling": [2.58], "includesElement__electronegativity_sanderson": [0.6397251, 0.5176678], "includesElement__en_ghosh": [0.23596, 0.22119], "includesElement__en_pauling": [2.58], "includesElement__evaporation_heat": [10.5, 159.0], "includesElement__fusion_heat": [1.23, 3.35], "includesElement__glawe_number": [96, 18], "includesElement__group_id": [16], "includesElement__heat_of_formation": [277.17, 155.6], "includesElement__is_radioactive": [false], "includesElement__lattice_constant": [10.47, 5.49], "includesElement__mendeleev_number": [100, 39], "includesElement__molar_heat_capacity": [22.7, 26.74], "includesElement__period": [3, 6], "includesElement__pettifor_number": [94, 17], "includesElement__specific_heat_capacity": [0.708, 0.155], "includesElement__vdw_radius": [180.0, 226.0], "includesElement__vdw_radius_alvarez": [189.0, 280.0], "includesElement__vdw_radius_mm3": [215.0, 279.0], "includesElement__vdw_radius_uff": [403.5, 335.5], "includesElement__abundance_sea": [905.0, 8.2e-07], "includesElement__c6_gb": [140.0, 1910.0], "includesElement__covalent_radius_bragg": [102.0], "includesElement__electronegativity_allen": [15.31], "includesElement__en_allen": [15.31], "includesElement__metallic_radius": [104.0], "includesElement__metallic_radius_c12": [127.0], "includesElement__thermal_conductivity": [0.27], "includesElement__vdw_radius_batsanov": [180.0], "includesElement__c6": [134.0], "includesElement__vdw_radius_dreiding": [403.0], "includesElement__gas_basicity": [640.2], "includesElement__proton_affinity": [664.3], "includesElement__vdw_radius_bondi": [180.0], "includesElement__vdw_radius_rt": [181.0], "includesElement__discovery_year": [1878], "includesElement__atomic_weight_uncertainty": [0.01], "formula": ["S1Yb1"], "spacegroup": ["225"], "thermalConductivity": [10.6078], "icsd": ["52219"], "band_gap": [2.2246], "density": [7.498295], "density_atomic": [22.71082], "deprecated": [false], "efermi": [2.08336], "homogeneous_poisson": [0.212], "is_gap_direct": [false], "is_magnetic": [false], "is_metal": [false], "is_stable": [false], "nelements": [2], "nsites": [2], "num_magnetic_sites": [0], "num_unique_magnetic_sites": [0], "theoretical": [false], "total_magnetization": [0.0], "total_magnetization_normalized_formula_units": [0.0], "total_magnetization_normalized_vol": [0.0], "universal_anisotropy": [0.52], "volume": [45.42164], "cbm": [4.1637], "vbm": [1.9391]}