{"includesElement": ["", "Se", "La"], "includesElement___series_id": [1, 9], "includesElement__abundance_crust": [0.05, 39.0], "includesElement__atomic_number": [34, 57], "includesElement__atomic_radius": [115.0, 195.0], "includesElement__atomic_radius_rahm": [224.0, 284.0], "includesElement__atomic_volume": [16.5, 22.5], "includesElement__atomic_weight": [78.971, 138.9055], "includesElement__covalent_radius_cordero": [120.0, 207.0], "includesElement__covalent_radius_pyykko": [116.0, 180.0], "includesElement__covalent_radius_pyykko_double": [107.0, 139.0], "includesElement__covalent_radius_pyykko_triple": [107.0, 139.0], "includesElement__density": [4.809, 6.15], "includesElement__dipole_polarizability": [28.9, 215.0], "includesElement__dipole_polarizability_unc": [1.0, 20.0], "includesElement__discovery_year": [1818, 1839], "includesElement__electron_affinity": [2.02067, 0.47], "includesElement__electronegativity_allred-rochow": [0.0005164982, 9.259259e-05], "includesElement__electronegativity_cottrell-sutton": [0.2447729, 0.1290994], "includesElement__electronegativity_ghosh": [0.2240328, 0.163142], "includesElement__electronegativity_gordy": [0.05991379, 0.01666667], "includesElement__electronegativity_mulliken": [5.886531, 3.02345], "includesElement__electronegativity_nagle": [0.592131, 0.240747], "includesElement__electronegativity_pauling": [2.55, 1.1], "includesElement__electronegativity_sanderson": [0.9659121, 0.3946505], "includesElement__en_ghosh": [0.2240328, 0.163142], "includesElement__en_pauling": [2.55, 1.1], "includesElement__evaporation_heat": [59.7, 402.0], "includesElement__fusion_heat": [5.23, 8.5], "includesElement__glawe_number": [95, 32], "includesElement__group_id": [16, 3], "includesElement__heat_of_formation": [227.2, 431.0], "includesElement__is_radioactive": [false], "includesElement__lattice_constant": [4.36, 3.75], "includesElement__mendeleev_number": [101, 13], "includesElement__molar_heat_capacity": [25.363, 27.11], "includesElement__period": [4, 6], "includesElement__pettifor_number": [93, 33], "includesElement__specific_heat_capacity": [0.321, 0.195], "includesElement__vdw_radius": [190.0, 243.0], "includesElement__vdw_radius_alvarez": [182.0, 298.0], "includesElement__vdw_radius_mm3": [229.0, 278.0], "includesElement__vdw_radius_uff": [420.5, 352.2], "includesElement__abundance_sea": [0.0002, 3.4e-06], "includesElement__atomic_weight_uncertainty": [0.008, 7e-05], "includesElement__c6_gb": [233.0, 3730.0], "includesElement__covalent_radius_bragg": [117.0], "includesElement__electronegativity_allen": [14.34], "includesElement__en_allen": [14.34], "includesElement__metallic_radius": [117.0, 169.0], "includesElement__metallic_radius_c12": [140.0, 187.0], "includesElement__thermal_conductivity": [0.52, 13.4], "includesElement__vdw_radius_batsanov": [190.0, 250.0], "includesElement__c6": [210.0], "includesElement__vdw_radius_dreiding": [403.0], "includesElement__vdw_radius_bondi": [190.0], "includesElement__gas_basicity": [991.9], "includesElement__proton_affinity": [1013.0], "formula": ["La1Se1"], "spacegroup": ["225"], "thermalConductivity": [4.98039], "icsd": ["183943"], "band_gap": [0.0], "density": [6.366355], "density_atomic": [28.41297], "deprecated": [false], "efermi": [7.951121], "energy_above_hull": [0.0], "energy_per_atom": [-24.29215], "formation_energy_per_atom": [-2.263983], "is_gap_direct": [false], "is_magnetic": [false], "is_metal": [true], "is_stable": [true], "nelements": [2], "nsites": [2], "num_magnetic_sites": [0], "num_unique_magnetic_sites": [0], "theoretical": [false], "total_magnetization": [0.0004744], "total_magnetization_normalized_formula_units": [0.0004744], "total_magnetization_normalized_vol": [8.348299e-06], "uncorrected_energy_per_atom": [-24.29215], "volume": [56.82594], "equilibrium_reaction_energy_per_atom": [-0.3120707]}