{"includesElement": ["", "O", "K"], "includesElement___series_id": [1, 3], "includesElement__abundance_crust": [461000.0, 20900.0], "includesElement__atomic_number": [8, 19], "includesElement__atomic_radius": [60.0, 220.0], "includesElement__atomic_radius_rahm": [171.0, 234.0], "includesElement__atomic_volume": [14.0, 45.3], "includesElement__atomic_weight": [15.999, 39.0983], "includesElement__covalent_radius_cordero": [66.0, 203.0], "includesElement__covalent_radius_pyykko": [63.0, 196.0], "includesElement__covalent_radius_pyykko_double": [57.0, 193.0], "includesElement__covalent_radius_pyykko_triple": [53.0], "includesElement__density": [0.001308, 0.89], "includesElement__dipole_polarizability": [5.3, 289.7], "includesElement__dipole_polarizability_unc": [0.2, 0.3], "includesElement__discovery_year": [1774, 1807], "includesElement__electron_affinity": [1.461113, 0.50147], "includesElement__electronegativity_allred-rochow": [0.001146384, 5.726781e-05], "includesElement__electronegativity_cottrell-sutton": [0.2687419, 0.1059457], "includesElement__electronegativity_ghosh": [0.304575, 0.0981896], "includesElement__electronegativity_gordy": [0.07222222, 0.01122449], "includesElement__electronegativity_mulliken": [7.539584, 2.421067], "includesElement__electronegativity_nagle": [1.042218, 0.1511299], "includesElement__electronegativity_pauling": [3.44, 0.82], "includesElement__electronegativity_sanderson": [0.9416494, 0.1218383], "includesElement__en_ghosh": [0.304575, 0.0981896], "includesElement__en_pauling": [3.44, 0.82], "includesElement__glawe_number": [97, 10], "includesElement__group_id": [16, 1], "includesElement__heat_of_formation": [249.229, 89.0], "includesElement__is_radioactive": [false], "includesElement__lattice_constant": [6.83, 5.23], "includesElement__mendeleev_number": [99, 3], "includesElement__molar_heat_capacity": [29.378, 29.6], "includesElement__period": [2, 4], "includesElement__pettifor_number": [101, 10], "includesElement__specific_heat_capacity": [0.918, 0.757], "includesElement__vdw_radius": [152.0, 275.0], "includesElement__vdw_radius_alvarez": [150.0, 273.0], "includesElement__vdw_radius_mm3": [182.0, 309.0], "includesElement__vdw_radius_uff": [350.0, 381.2], "includesElement__abundance_sea": [857000.0, 399.0], "includesElement__c6_gb": [16.7, 3910.0], "includesElement__covalent_radius_bragg": [65.0, 207.0], "includesElement__electronegativity_allen": [21.36, 4.34], "includesElement__en_allen": [21.36, 4.34], "includesElement__thermal_conductivity": [0.027, 79.0], "includesElement__vdw_radius_batsanov": [155.0, 280.0], "includesElement__c6": [15.6, 3923.0], "includesElement__vdw_radius_dreiding": [340.46], "includesElement__gas_basicity": [459.6], "includesElement__proton_affinity": [485.2], "includesElement__vdw_radius_bondi": [152.0, 275.0], "includesElement__vdw_radius_rt": [158.0], "includesElement__evaporation_heat": [2.33], "includesElement__fusion_heat": [102.5], "includesElement__atomic_weight_uncertainty": [0.0001], "includesElement__metallic_radius": [203.0], "includesElement__metallic_radius_c12": [235.0], "formula": ["K2O1"], "spacegroup": ["225"], "thermalConductivity": [1.76563], "icsd": ["180571"], "band_gap": [1.7072], "density": [2.413811], "density_atomic": [21.60016], "deprecated": [false], "efermi": [0.4715628], "energy_above_hull": [0.0], "energy_per_atom": [-3.637445], "formation_energy_per_atom": [-1.232444], "homogeneous_poisson": [0.301], "is_gap_direct": [false], "is_magnetic": [false], "is_metal": [false], "is_stable": [true], "nelements": [2], "nsites": [6], "num_magnetic_sites": [0], "num_unique_magnetic_sites": [0], "theoretical": [false], "total_magnetization": [0.0], "total_magnetization_normalized_formula_units": [0.0], "total_magnetization_normalized_vol": [0.0], "uncorrected_energy_per_atom": [-3.408445], "universal_anisotropy": [2.204], "volume": [129.601], "cbm": [2.0533], "e_electronic": [3.181876], "e_ionic": [6.058908], "e_total": [9.240784], "equilibrium_reaction_energy_per_atom": [-0.3772388], "n": [1.783781], "vbm": [0.3461]}