{"includesElement": ["", "H", "W"], "includesElement___series_id": [1, 8], "includesElement__abundance_crust": [1400.0, 1.25], "includesElement__atomic_number": [1, 74], "includesElement__atomic_radius": [25.0, 135.0], "includesElement__atomic_radius_rahm": [154.0, 253.0], "includesElement__atomic_volume": [14.1, 9.53], "includesElement__atomic_weight": [1.008, 183.84], "includesElement__covalent_radius_cordero": [31.0, 162.0], "includesElement__covalent_radius_pyykko": [32.0, 137.0], "includesElement__density": [8.2e-05, 19.3], "includesElement__dipole_polarizability": [4.50711, 68.0], "includesElement__dipole_polarizability_unc": [3e-05, 15.0], "includesElement__discovery_year": [1766, 1783], "includesElement__electron_affinity": [0.754195, 0.81626], "includesElement__electronegativity_allred-rochow": [0.0009765625, 0.0001838137], "includesElement__electronegativity_cottrell-sutton": [0.1767767, 0.1586899], "includesElement__electronegativity_ghosh": [0.2638, 0.2390504], "includesElement__electronegativity_gordy": [0.03125, 0.02518248], "includesElement__electronegativity_mulliken": [7.176315, 4.340145], "includesElement__electronegativity_nagle": [0.6053882, 0.4451921], "includesElement__electronegativity_pauling": [2.2, 1.7], "includesElement__electronegativity_sanderson": [2.187771, 1.019283], "includesElement__en_ghosh": [0.2638, 0.2390504], "includesElement__en_pauling": [2.2, 1.7], "includesElement__evaporation_heat": [0.904, 824.0], "includesElement__fusion_heat": [0.117, 35.0], "includesElement__glawe_number": [103, 57], "includesElement__group_id": [1, 6], "includesElement__heat_of_formation": [217.998, 851.0], "includesElement__is_radioactive": [false], "includesElement__lattice_constant": [3.75, 3.16], "includesElement__mendeleev_number": [105, 53], "includesElement__molar_heat_capacity": [28.836, 24.27], "includesElement__period": [1, 6], "includesElement__pettifor_number": [103, 56], "includesElement__specific_heat_capacity": [14.304, 0.132], "includesElement__vdw_radius": [110.0, 218.0], "includesElement__vdw_radius_alvarez": [120.0, 257.0], "includesElement__vdw_radius_mm3": [162.0, 239.0], "includesElement__vdw_radius_uff": [288.6, 309.6], "includesElement__abundance_sea": [108000.0, 0.0001], "includesElement__c6_gb": [6.51, 757.0], "includesElement__electronegativity_allen": [13.61, 8.67], "includesElement__en_allen": [13.61, 8.67], "includesElement__metallic_radius_c12": [78.0, 139.0], "includesElement__thermal_conductivity": [0.1815, 173.0], "includesElement__c6": [6.499027], "includesElement__vdw_radius_dreiding": [319.5], "includesElement__vdw_radius_bondi": [120.0], "includesElement__vdw_radius_rt": [110.0], "includesElement__covalent_radius_pyykko_double": [120.0], "includesElement__covalent_radius_pyykko_triple": [115.0], "includesElement__atomic_weight_uncertainty": [0.01], "includesElement__metallic_radius": [130.0], "includesElement__vdw_radius_batsanov": [210.0], "formula": ["H2W2"], "spacegroup": ["194"], "thermalConductivity": [22.2359], "icsd": ["247586"], "band_gap": [0.0], "density": [17.10584], "density_atomic": [8.972003], "deprecated": [false], "efermi": [6.896856], "energy_above_hull": [0.1611373], "energy_per_atom": [-27.25032], "formation_energy_per_atom": [0.1611373], "homogeneous_poisson": [0.267], "is_gap_direct": [false], "is_magnetic": [false], "is_metal": [true], "is_stable": [false], "nelements": [2], "nsites": [4], "num_magnetic_sites": [0], "num_unique_magnetic_sites": [0], "theoretical": [true], "total_magnetization": [0.0001109], "total_magnetization_normalized_formula_units": [5.545e-05], "total_magnetization_normalized_vol": [3.090169e-06], "uncorrected_energy_per_atom": [-8.017653], "universal_anisotropy": [0.08], "volume": [35.88801]}