{"includesElement": ["", "Al", "Mo"], "includesElement___series_id": [7, 8], "includesElement__abundance_crust": [82300.0, 1.2], "includesElement__atomic_number": [13, 42], "includesElement__atomic_radius": [125.0, 145.0], "includesElement__atomic_radius_rahm": [239.0, 244.0], "includesElement__atomic_volume": [10.0, 9.4], "includesElement__atomic_weight": [26.98154, 95.95], "includesElement__covalent_radius_cordero": [121.0, 154.0], "includesElement__covalent_radius_pyykko": [126.0, 138.0], "includesElement__covalent_radius_pyykko_double": [113.0, 121.0], "includesElement__covalent_radius_pyykko_triple": [111.0, 113.0], "includesElement__density": [2.7, 10.2], "includesElement__dipole_polarizability": [57.8, 87.0], "includesElement__dipole_polarizability_unc": [1.0, 6.0], "includesElement__discovery_year": [1825, 1778], "includesElement__electron_affinity": [0.43283, 0.748], "includesElement__electronegativity_allred-rochow": [0.0002204586, 0.0001549044], "includesElement__electronegativity_cottrell-sutton": [0.1666667, 0.1462081], "includesElement__electronegativity_ghosh": [0.150078, 0.1312672], "includesElement__electronegativity_gordy": [0.02777778, 0.02137681], "includesElement__electronegativity_mulliken": [3.209299, 3.920215], "includesElement__electronegativity_nagle": [0.3730192, 0.4100883], "includesElement__electronegativity_pauling": [1.61, 2.16], "includesElement__electronegativity_sanderson": [0.2360927, 0.685295], "includesElement__en_ghosh": [0.150078, 0.1312672], "includesElement__en_pauling": [1.61, 2.16], "includesElement__evaporation_heat": [284.1, 590.0], "includesElement__fusion_heat": [10.75, 28.0], "includesElement__glawe_number": [78, 56], "includesElement__group_id": [13, 6], "includesElement__heat_of_formation": [330.9, 658.98], "includesElement__is_radioactive": [false], "includesElement__lattice_constant": [4.05, 3.15], "includesElement__mendeleev_number": [82, 52], "includesElement__molar_heat_capacity": [24.2, 24.06], "includesElement__period": [3, 5], "includesElement__pettifor_number": [80, 55], "includesElement__specific_heat_capacity": [0.897, 0.251], "includesElement__vdw_radius": [184.0, 217.0], "includesElement__vdw_radius_alvarez": [225.0, 245.0], "includesElement__vdw_radius_mm3": [236.0, 239.0], "includesElement__vdw_radius_uff": [449.9, 305.2], "includesElement__abundance_sea": [0.002, 0.01], "includesElement__atomic_weight_uncertainty": [7e-07, 0.01], "includesElement__c6_gb": [520.0, 1030.0], "includesElement__covalent_radius_bragg": [135.0], "includesElement__electronegativity_allen": [9.539, 8.71], "includesElement__en_allen": [9.539, 8.71], "includesElement__metallic_radius": [125.0, 130.0], "includesElement__metallic_radius_c12": [143.0, 139.0], "includesElement__thermal_conductivity": [237.0], "includesElement__vdw_radius_batsanov": [210.0], "includesElement__c6": [528.0], "includesElement__is_monoisotopic": [true], "includesElement__vdw_radius_dreiding": [439.0], "includesElement__vdw_radius_truhlar": [184.0], "formula": ["Al2Mo6"], "spacegroup": ["223"], "thermalConductivity": [13.9255], "icsd": ["57999"], "band_gap": [0.0], "density": [8.613731], "density_atomic": [15.17171], "deprecated": [false], "efermi": [8.183867], "energy_above_hull": [0.0], "energy_per_atom": [-21.49535], "formation_energy_per_atom": [-0.2583364], "homogeneous_poisson": [0.273], "is_gap_direct": [false], "is_magnetic": [false], "is_metal": [true], "is_stable": [true], "nelements": [2], "nsites": [8], "num_magnetic_sites": [0], "num_unique_magnetic_sites": [0], "theoretical": [false], "total_magnetization": [2e-07], "total_magnetization_normalized_formula_units": [1e-07], "total_magnetization_normalized_vol": [1.647803e-09], "uncorrected_energy_per_atom": [-21.49535], "universal_anisotropy": [0.206], "volume": [121.3737], "equilibrium_reaction_energy_per_atom": [-0.1271531]}