{"includesElement": ["", "Mo", "C"], "includesElement___series_id": [8, 1], "includesElement__abundance_crust": [1.2, 200.0], "includesElement__atomic_number": [42, 6], "includesElement__atomic_radius": [145.0, 70.0], "includesElement__atomic_radius_rahm": [244.0, 190.0], "includesElement__atomic_volume": [9.4, 5.3], "includesElement__atomic_weight": [95.95, 12.011], "includesElement__covalent_radius_cordero": [154.0, 73.0], "includesElement__covalent_radius_pyykko": [138.0, 75.0], "includesElement__covalent_radius_pyykko_double": [121.0, 67.0], "includesElement__covalent_radius_pyykko_triple": [113.0, 60.0], "includesElement__density": [10.2, 2.2], "includesElement__dipole_polarizability": [87.0, 11.3], "includesElement__dipole_polarizability_unc": [6.0, 0.2], "includesElement__discovery_year": [1778], "includesElement__electron_affinity": [0.748, 1.262119], "includesElement__electronegativity_allred-rochow": [0.0001549044, 0.0005777778], "includesElement__electronegativity_cottrell-sutton": [0.1462081, 0.2081666], "includesElement__electronegativity_ghosh": [0.1312672, 0.224776], "includesElement__electronegativity_gordy": [0.02137681, 0.04333333], "includesElement__electronegativity_mulliken": [3.920215, 6.261208], "includesElement__electronegativity_nagle": [0.4100883, 0.7073926], "includesElement__electronegativity_pauling": [2.16, 2.55], "includesElement__electronegativity_sanderson": [0.685295, 0.427525], "includesElement__en_ghosh": [0.1312672, 0.224776], "includesElement__en_pauling": [2.16, 2.55], "includesElement__evaporation_heat": [590.0], "includesElement__fusion_heat": [28.0], "includesElement__glawe_number": [56, 87], "includesElement__group_id": [6, 14], "includesElement__heat_of_formation": [658.98, 716.87], "includesElement__is_radioactive": [false], "includesElement__lattice_constant": [3.15, 3.57], "includesElement__mendeleev_number": [52, 87], "includesElement__molar_heat_capacity": [24.06, 8.517], "includesElement__period": [5, 2], "includesElement__pettifor_number": [55, 95], "includesElement__specific_heat_capacity": [0.251, 0.709], "includesElement__vdw_radius": [217.0, 170.0], "includesElement__vdw_radius_alvarez": [245.0, 177.0], "includesElement__vdw_radius_mm3": [239.0, 204.0], "includesElement__vdw_radius_uff": [305.2, 385.1], "includesElement__abundance_sea": [0.01, 28.0], "includesElement__atomic_weight_uncertainty": [0.01], "includesElement__c6_gb": [1030.0, 47.9], "includesElement__electronegativity_allen": [8.71, 15.05], "includesElement__en_allen": [8.71, 15.05], "includesElement__metallic_radius": [130.0], "includesElement__metallic_radius_c12": [139.0, 86.0], "includesElement__vdw_radius_batsanov": [210.0, 170.0], "includesElement__covalent_radius_bragg": [77.0], "includesElement__thermal_conductivity": [1.59], "includesElement__c6": [46.6], "includesElement__vdw_radius_dreiding": [389.83], "includesElement__vdw_radius_bondi": [170.0], "includesElement__vdw_radius_rt": [177.0], "formula": ["C1Mo1"], "spacegroup": ["187"], "thermalConductivity": [86.7079], "icsd": ["618300"], "band_gap": [0.0], "density": [8.654787], "density_atomic": [10.35591], "deprecated": [false], "efermi": [8.990725], "energy_above_hull": [0.001495503], "energy_per_atom": [-10.12007], "formation_energy_per_atom": [-0.08291624], "homogeneous_poisson": [0.219], "is_gap_direct": [false], "is_magnetic": [false], "is_metal": [true], "is_stable": [false], "nelements": [2], "nsites": [2], "num_magnetic_sites": [0], "num_unique_magnetic_sites": [0], "theoretical": [false], "total_magnetization": [0.0], "total_magnetization_normalized_formula_units": [0.0], "total_magnetization_normalized_vol": [0.0], "uncorrected_energy_per_atom": [-18.17003], "universal_anisotropy": [0.12], "volume": [20.71182]}