{"includesElement": ["", "O", "Gd"], "includesElement___series_id": [1, 9], "includesElement__abundance_crust": [461000.0, 6.2], "includesElement__atomic_number": [8, 64], "includesElement__atomic_radius": [60.0, 180.0], "includesElement__atomic_radius_rahm": [171.0, 277.0], "includesElement__atomic_volume": [14.0, 19.9], "includesElement__atomic_weight": [15.999, 157.25], "includesElement__covalent_radius_cordero": [66.0, 196.0], "includesElement__covalent_radius_pyykko": [63.0, 169.0], "includesElement__covalent_radius_pyykko_double": [57.0, 135.0], "includesElement__covalent_radius_pyykko_triple": [53.0, 132.0], "includesElement__density": [0.001308, 7.9], "includesElement__dipole_polarizability": [5.3, 158.0], "includesElement__dipole_polarizability_unc": [0.2, 20.0], "includesElement__discovery_year": [1774, 1880], "includesElement__electron_affinity": [1.461113], "includesElement__electronegativity_allred-rochow": [0.001146384, 0.0001050383], "includesElement__electronegativity_cottrell-sutton": [0.2687419, 0.1332347], "includesElement__electronegativity_ghosh": [0.304575, 0.1944], "includesElement__electronegativity_gordy": [0.07222222, 0.01775148], "includesElement__electronegativity_mulliken": [7.539584, 3.074898], "includesElement__electronegativity_nagle": [1.042218, 0.3985177], "includesElement__electronegativity_pauling": [3.44, 1.2], "includesElement__electronegativity_sanderson": [0.9416494, 0.503386], "includesElement__en_ghosh": [0.304575, 0.1944], "includesElement__en_pauling": [3.44, 1.2], "includesElement__glawe_number": [97, 26], "includesElement__group_id": [16], "includesElement__heat_of_formation": [249.229, 397.5], "includesElement__is_radioactive": [false], "includesElement__lattice_constant": [6.83, 3.64], "includesElement__mendeleev_number": [99, 27], "includesElement__molar_heat_capacity": [29.378, 37.03], "includesElement__period": [2, 6], "includesElement__pettifor_number": [101, 27], "includesElement__specific_heat_capacity": [0.918, 0.236], "includesElement__vdw_radius": [152.0, 234.0], "includesElement__vdw_radius_alvarez": [150.0, 283.0], "includesElement__vdw_radius_mm3": [182.0, 271.0], "includesElement__vdw_radius_uff": [350.0, 336.8], "includesElement__abundance_sea": [857000.0, 7e-07], "includesElement__c6_gb": [16.7, 2340.0], "includesElement__covalent_radius_bragg": [65.0], "includesElement__electronegativity_allen": [21.36], "includesElement__en_allen": [21.36], "includesElement__thermal_conductivity": [0.027], "includesElement__vdw_radius_batsanov": [155.0], "includesElement__c6": [15.6], "includesElement__vdw_radius_dreiding": [340.46], "includesElement__gas_basicity": [459.6], "includesElement__proton_affinity": [485.2], "includesElement__vdw_radius_bondi": [152.0], "includesElement__vdw_radius_rt": [158.0], "includesElement__evaporation_heat": [398.0], "includesElement__atomic_weight_uncertainty": [0.03], "formula": ["Gd1O1"], "spacegroup": ["216"], "thermalConductivity": [10.6193], "icsd": ["24981"], "band_gap": [0.0], "density": [7.339499], "density_atomic": [19.59857], "deprecated": [false], "efermi": [3.978702], "energy_above_hull": [0.1985916], "energy_per_atom": [-27.60909], "formation_energy_per_atom": [-2.930264], "is_gap_direct": [false], "is_magnetic": [true], "is_metal": [true], "is_stable": [false], "nelements": [2], "nsites": [2], "num_magnetic_sites": [1], "num_unique_magnetic_sites": [1], "theoretical": [false], "total_magnetization": [6.040618], "total_magnetization_normalized_formula_units": [6.040618], "total_magnetization_normalized_vol": [0.1541086], "uncorrected_energy_per_atom": [-12.21613], "volume": [39.19714]}