{"includesElement": ["", "Cu", "O"], "includesElement___series_id": [8, 1], "includesElement__abundance_crust": [60.0, 461000.0], "includesElement__atomic_number": [29, 8], "includesElement__atomic_radius": [135.0, 60.0], "includesElement__atomic_radius_rahm": [217.0, 171.0], "includesElement__atomic_volume": [7.1, 14.0], "includesElement__atomic_weight": [63.546, 15.999], "includesElement__covalent_radius_cordero": [132.0, 66.0], "includesElement__covalent_radius_pyykko": [112.0, 63.0], "includesElement__covalent_radius_pyykko_double": [115.0, 57.0], "includesElement__covalent_radius_pyykko_triple": [120.0, 53.0], "includesElement__density": [8.96, 0.001308], "includesElement__dipole_polarizability": [46.5, 5.3], "includesElement__dipole_polarizability_unc": [0.5, 0.2], "includesElement__electron_affinity": [1.235, 1.461113], "includesElement__electronegativity_allred-rochow": [0.0002949617, 0.001146384], "includesElement__electronegativity_cottrell-sutton": [0.1817573, 0.2687419], "includesElement__electronegativity_ghosh": [0.1511716, 0.304575], "includesElement__electronegativity_gordy": [0.03303571, 0.07222222], "includesElement__electronegativity_mulliken": [4.48069, 7.539584], "includesElement__electronegativity_nagle": [0.6184623, 1.042218], "includesElement__electronegativity_pauling": [1.9, 3.44], "includesElement__electronegativity_sanderson": [0.9175542, 0.9416494], "includesElement__en_ghosh": [0.1511716, 0.304575], "includesElement__en_pauling": [1.9, 3.44], "includesElement__evaporation_heat": [304.6], "includesElement__fusion_heat": [13.01], "includesElement__glawe_number": [68, 97], "includesElement__group_id": [11, 16], "includesElement__heat_of_formation": [337.4, 249.229], "includesElement__is_radioactive": [false], "includesElement__lattice_constant": [3.61, 6.83], "includesElement__mendeleev_number": [71, 99], "includesElement__molar_heat_capacity": [24.44, 29.378], "includesElement__period": [4, 2], "includesElement__pettifor_number": [72, 101], "includesElement__specific_heat_capacity": [0.385, 0.918], "includesElement__vdw_radius": [196.0, 152.0], "includesElement__vdw_radius_alvarez": [238.0, 150.0], "includesElement__vdw_radius_mm3": [226.0, 182.0], "includesElement__vdw_radius_uff": [349.5, 350.0], "includesElement__abundance_sea": [0.00025, 857000.0], "includesElement__atomic_weight_uncertainty": [0.003], "includesElement__c6_gb": [264.0, 16.7], "includesElement__covalent_radius_bragg": [137.0, 65.0], "includesElement__electronegativity_allen": [10.96, 21.36], "includesElement__en_allen": [10.96, 21.36], "includesElement__metallic_radius": [118.0], "includesElement__metallic_radius_c12": [128.0], "includesElement__thermal_conductivity": [401.0, 0.027], "includesElement__vdw_radius_batsanov": [200.0, 155.0], "includesElement__c6": [253.0, 15.6], "includesElement__gas_basicity": [632.4, 459.6], "includesElement__proton_affinity": [655.3, 485.2], "includesElement__discovery_year": [1774], "includesElement__vdw_radius_dreiding": [340.46], "includesElement__vdw_radius_bondi": [152.0], "includesElement__vdw_radius_rt": [158.0], "formula": ["Cu2O2"], "spacegroup": ["15"], "thermalConductivity": [1.43012], "icsd": ["26715"], "band_gap": [0.0], "density": [5.938478], "density_atomic": [11.12139], "deprecated": [false], "efermi": [4.61792], "energy_above_hull": [0.000264655], "energy_per_atom": [-9.188421], "formation_energy_per_atom": [-0.7846978], "is_gap_direct": [false], "is_magnetic": [false], "is_metal": [true], "is_stable": [false], "nelements": [2], "nsites": [4], "num_magnetic_sites": [0], "num_unique_magnetic_sites": [0], "theoretical": [false], "total_magnetization": [0.0013832], "total_magnetization_normalized_formula_units": [0.0006916], "total_magnetization_normalized_vol": [3.109324e-05], "uncorrected_energy_per_atom": [-5.122614], "volume": [44.48555]}