{"includesElement": ["", "Ag", "C"], "includesElement___series_id": [8, 1], "includesElement__abundance_crust": [0.075, 200.0], "includesElement__atomic_number": [47, 6], "includesElement__atomic_radius": [160.0, 70.0], "includesElement__atomic_radius_rahm": [225.0, 190.0], "includesElement__atomic_volume": [10.3, 5.3], "includesElement__atomic_weight": [107.8682, 12.011], "includesElement__covalent_radius_cordero": [145.0, 73.0], "includesElement__covalent_radius_pyykko": [128.0, 75.0], "includesElement__covalent_radius_pyykko_double": [139.0, 67.0], "includesElement__covalent_radius_pyykko_triple": [137.0, 60.0], "includesElement__density": [10.5, 2.2], "includesElement__dipole_polarizability": [55.0, 11.3], "includesElement__dipole_polarizability_unc": [8.0, 0.2], "includesElement__electron_affinity": [1.302, 1.262119], "includesElement__electronegativity_allred-rochow": [0.0002258301, 0.0005777778], "includesElement__electronegativity_cottrell-sutton": [0.1700184, 0.2081666], "includesElement__electronegativity_ghosh": [0.1472165, 0.224776], "includesElement__electronegativity_gordy": [0.02890625, 0.04333333], "includesElement__electronegativity_mulliken": [4.439117, 6.261208], "includesElement__electronegativity_nagle": [0.5848035, 0.7073926], "includesElement__electronegativity_pauling": [1.93, 2.55], "includesElement__electronegativity_sanderson": [0.9437955, 0.427525], "includesElement__en_ghosh": [0.1472165, 0.224776], "includesElement__en_pauling": [1.93, 2.55], "includesElement__evaporation_heat": [254.1], "includesElement__fusion_heat": [11.95], "includesElement__glawe_number": [67, 87], "includesElement__group_id": [11, 14], "includesElement__heat_of_formation": [284.9, 716.87], "includesElement__is_radioactive": [false], "includesElement__lattice_constant": [4.09, 3.57], "includesElement__mendeleev_number": [72, 87], "includesElement__molar_heat_capacity": [25.35, 8.517], "includesElement__period": [5, 2], "includesElement__pettifor_number": [71, 95], "includesElement__specific_heat_capacity": [0.235, 0.709], "includesElement__vdw_radius": [211.0, 170.0], "includesElement__vdw_radius_alvarez": [253.0, 177.0], "includesElement__vdw_radius_mm3": [243.0, 204.0], "includesElement__vdw_radius_uff": [314.8, 385.1], "includesElement__abundance_sea": [4e-05, 28.0], "includesElement__atomic_weight_uncertainty": [0.0002], "includesElement__c6_gb": [341.0, 47.9], "includesElement__covalent_radius_bragg": [177.0, 77.0], "includesElement__electronegativity_allen": [11.05, 15.05], "includesElement__en_allen": [11.05, 15.05], "includesElement__metallic_radius": [134.0], "includesElement__metallic_radius_c12": [144.0, 86.0], "includesElement__thermal_conductivity": [429.0, 1.59], "includesElement__vdw_radius_batsanov": [210.0, 170.0], "includesElement__c6": [46.6], "includesElement__vdw_radius_dreiding": [389.83], "includesElement__vdw_radius_bondi": [170.0], "includesElement__vdw_radius_rt": [177.0], "formula": ["Ag1C1"], "spacegroup": ["225"], "thermalConductivity": [0.868197], "icsd": ["183175"], "band_gap": [0.0], "density": [7.82937], "density_atomic": [12.71262], "deprecated": [false], "efermi": [3.829746], "energy_above_hull": [2.241656], "energy_per_atom": [-3.794146], "formation_energy_per_atom": [2.241656], "homogeneous_poisson": [0.432], "is_gap_direct": [false], "is_magnetic": [false], "is_metal": [true], "is_stable": [false], "nelements": [2], "nsites": [2], "num_magnetic_sites": [0], "num_unique_magnetic_sites": [0], "theoretical": [true], "total_magnetization": [0.0003218], "total_magnetization_normalized_formula_units": [0.0003218], "total_magnetization_normalized_vol": [1.265672e-05], "uncorrected_energy_per_atom": [-3.794146], "universal_anisotropy": [1.102], "volume": [25.42524]}