{"includesElement": ["", "O", "Cl", "Y"], "includesElement___series_id": [1, 6, 8], "includesElement__abundance_crust": [461000.0, 145.0, 33.0], "includesElement__atomic_number": [8, 17, 39], "includesElement__atomic_radius": [60.0, 100.0, 180.0], "includesElement__atomic_radius_rahm": [171.0, 206.0, 274.0], "includesElement__atomic_volume": [14.0, 18.7, 19.8], "includesElement__atomic_weight": [15.999, 35.45, 88.90584], "includesElement__covalent_radius_cordero": [66.0, 102.0, 190.0], "includesElement__covalent_radius_pyykko": [63.0, 99.0, 163.0], "includesElement__covalent_radius_pyykko_double": [57.0, 95.0, 130.0], "includesElement__covalent_radius_pyykko_triple": [53.0, 93.0, 124.0], "includesElement__density": [0.001308, 0.002898, 4.47], "includesElement__dipole_polarizability": [5.3, 14.6, 162.0], "includesElement__dipole_polarizability_unc": [0.2, 0.1, 12.0], "includesElement__discovery_year": [1774, 1789], "includesElement__electron_affinity": [1.461113, 3.612725, 0.307], "includesElement__electronegativity_allred-rochow": [0.001146384, 0.0006223855, 0.0001129135], "includesElement__electronegativity_cottrell-sutton": [0.2687419, 0.248226, 0.1356647], "includesElement__electronegativity_ghosh": [0.304575, 0.263803, 0.1216986], "includesElement__electronegativity_gordy": [0.07222222, 0.06161616, 0.01840491], "includesElement__electronegativity_mulliken": [7.539584, 8.290178, 3.26213], "includesElement__electronegativity_nagle": [1.042218, 0.7826755, 0.2645668], "includesElement__electronegativity_pauling": [3.44, 3.16, 1.22], "includesElement__electronegativity_sanderson": [0.9416494, 0.8123773, 0.3923941], "includesElement__en_ghosh": [0.304575, 0.263803, 0.1216986], "includesElement__en_pauling": [3.44, 3.16, 1.22], "includesElement__glawe_number": [97, 101, 21], "includesElement__group_id": [16, 17, 3], "includesElement__heat_of_formation": [249.229, 121.302, 424.7], "includesElement__is_radioactive": [false], "includesElement__lattice_constant": [6.83, 6.24, 3.65], "includesElement__mendeleev_number": [99, 107, 12], "includesElement__molar_heat_capacity": [29.378, 33.949, 26.53], "includesElement__period": [2, 3, 5], "includesElement__pettifor_number": [101, 99, 19], "includesElement__specific_heat_capacity": [0.918, 0.479, 0.298], "includesElement__vdw_radius": [152.0, 175.0, 232.0], "includesElement__vdw_radius_alvarez": [150.0, 182.0, 275.0], "includesElement__vdw_radius_mm3": [182.0, 207.0, 271.0], "includesElement__vdw_radius_uff": [350.0, 394.7, 334.5], "includesElement__abundance_sea": [857000.0, 19400.0, 1.3e-05], "includesElement__c6_gb": [16.7, 97.1, 2600.0], "includesElement__covalent_radius_bragg": [65.0, 105.0], "includesElement__electronegativity_allen": [21.36, 16.97, 6.631], "includesElement__en_allen": [21.36, 16.97, 6.631], "includesElement__thermal_conductivity": [0.027, 0.009], "includesElement__vdw_radius_batsanov": [155.0, 180.0, 240.0], "includesElement__c6": [15.6, 94.6], "includesElement__vdw_radius_dreiding": [340.46, 395.03], "includesElement__gas_basicity": [459.6, 490.1, 945.9], "includesElement__proton_affinity": [485.2, 513.6, 967.0], "includesElement__vdw_radius_bondi": [152.0, 175.0], "includesElement__vdw_radius_rt": [158.0, 176.0], "includesElement__evaporation_heat": [20.41, 367.0], "includesElement__fusion_heat": [6.41, 11.5], "includesElement__metallic_radius_c12": [91.0, 180.0], "includesElement__atomic_weight_uncertainty": [2e-05], "includesElement__metallic_radius": [162.0], "includesElement__is_monoisotopic": [true], "formula": ["Cl2O2Y2"], "spacegroup": ["129"], "thermalConductivity": [5.58495], "icsd": ["60586"], "band_gap": [5.0892], "density": [4.632623], "density_atomic": [16.77022], "deprecated": [false], "efermi": [2.44519], "energy_above_hull": [0.04677159], "energy_per_atom": [-7.896111], "formation_energy_per_atom": [-3.45948], "is_gap_direct": [true], "is_magnetic": [false], "is_metal": [false], "is_stable": [false], "nelements": [3], "nsites": [6], "num_magnetic_sites": [0], "num_unique_magnetic_sites": [0], "theoretical": [false], "total_magnetization": [0.0], "total_magnetization_normalized_formula_units": [0.0], "total_magnetization_normalized_vol": [0.0], "uncorrected_energy_per_atom": [-7.462444], "volume": [100.6213], "cbm": [7.4443], "e_electronic": [4.25713], "e_ionic": [17.99173], "e_total": [22.24886], "n": [2.063281], "vbm": [2.3551]}