{"includesElement": ["", "Se", "Gd"], "includesElement___series_id": [1, 9], "includesElement__abundance_crust": [0.05, 6.2], "includesElement__atomic_number": [34, 64], "includesElement__atomic_radius": [115.0, 180.0], "includesElement__atomic_radius_rahm": [224.0, 277.0], "includesElement__atomic_volume": [16.5, 19.9], "includesElement__atomic_weight": [78.971, 157.25], "includesElement__covalent_radius_cordero": [120.0, 196.0], "includesElement__covalent_radius_pyykko": [116.0, 169.0], "includesElement__covalent_radius_pyykko_double": [107.0, 135.0], "includesElement__covalent_radius_pyykko_triple": [107.0, 132.0], "includesElement__density": [4.809, 7.9], "includesElement__dipole_polarizability": [28.9, 158.0], "includesElement__dipole_polarizability_unc": [1.0, 20.0], "includesElement__discovery_year": [1818, 1880], "includesElement__electron_affinity": [2.02067], "includesElement__electronegativity_allred-rochow": [0.0005164982, 0.0001050383], "includesElement__electronegativity_cottrell-sutton": [0.2447729, 0.1332347], "includesElement__electronegativity_ghosh": [0.2240328, 0.1944], "includesElement__electronegativity_gordy": [0.05991379, 0.01775148], "includesElement__electronegativity_mulliken": [5.886531, 3.074898], "includesElement__electronegativity_nagle": [0.592131, 0.3985177], "includesElement__electronegativity_pauling": [2.55, 1.2], "includesElement__electronegativity_sanderson": [0.9659121, 0.503386], "includesElement__en_ghosh": [0.2240328, 0.1944], "includesElement__en_pauling": [2.55, 1.2], "includesElement__evaporation_heat": [59.7, 398.0], "includesElement__fusion_heat": [5.23], "includesElement__glawe_number": [95, 26], "includesElement__group_id": [16], "includesElement__heat_of_formation": [227.2, 397.5], "includesElement__is_radioactive": [false], "includesElement__lattice_constant": [4.36, 3.64], "includesElement__mendeleev_number": [101, 27], "includesElement__molar_heat_capacity": [25.363, 37.03], "includesElement__period": [4, 6], "includesElement__pettifor_number": [93, 27], "includesElement__specific_heat_capacity": [0.321, 0.236], "includesElement__vdw_radius": [190.0, 234.0], "includesElement__vdw_radius_alvarez": [182.0, 283.0], "includesElement__vdw_radius_mm3": [229.0, 271.0], "includesElement__vdw_radius_uff": [420.5, 336.8], "includesElement__abundance_sea": [0.0002, 7e-07], "includesElement__atomic_weight_uncertainty": [0.008, 0.03], "includesElement__c6_gb": [233.0, 2340.0], "includesElement__covalent_radius_bragg": [117.0], "includesElement__electronegativity_allen": [14.34], "includesElement__en_allen": [14.34], "includesElement__metallic_radius": [117.0], "includesElement__metallic_radius_c12": [140.0], "includesElement__thermal_conductivity": [0.52], "includesElement__vdw_radius_batsanov": [190.0], "includesElement__c6": [210.0], "includesElement__vdw_radius_dreiding": [403.0], "includesElement__vdw_radius_bondi": [190.0], "formula": ["Gd1Se1"], "spacegroup": ["225"], "thermalConductivity": [5.8004], "icsd": ["27110"], "band_gap": [0.0], "density": [7.945841], "density_atomic": [24.68184], "deprecated": [false], "efermi": [5.309057], "energy_above_hull": [0.0], "energy_per_atom": [-30.86377], "formation_energy_per_atom": [-2.009486], "homogeneous_poisson": [0.337], "is_gap_direct": [false], "is_magnetic": [true], "is_metal": [true], "is_stable": [true], "nelements": [2], "nsites": [2], "num_magnetic_sites": [1], "num_unique_magnetic_sites": [1], "theoretical": [false], "total_magnetization": [7.106717], "total_magnetization_normalized_formula_units": [7.106717], "total_magnetization_normalized_vol": [0.1439665], "uncorrected_energy_per_atom": [-30.86377], "universal_anisotropy": [3.325], "volume": [49.36368], "equilibrium_reaction_energy_per_atom": [-0.2229235]}