{"includesElement": ["", "Fe", "W", "C"], "includesElement___series_id": [8, 1], "includesElement__abundance_crust": [56300.0, 1.25, 200.0], "includesElement__atomic_number": [26, 74, 6], "includesElement__atomic_radius": [140.0, 135.0, 70.0], "includesElement__atomic_radius_rahm": [237.0, 253.0, 190.0], "includesElement__atomic_volume": [7.1, 9.53, 5.3], "includesElement__atomic_weight": [55.845, 183.84, 12.011], "includesElement__covalent_radius_cordero": [142.0, 162.0, 73.0], "includesElement__covalent_radius_pyykko": [116.0, 137.0, 75.0], "includesElement__covalent_radius_pyykko_double": [109.0, 120.0, 67.0], "includesElement__covalent_radius_pyykko_triple": [102.0, 115.0, 60.0], "includesElement__density": [7.87, 19.3, 2.2], "includesElement__dipole_polarizability": [62.0, 68.0, 11.3], "includesElement__dipole_polarizability_unc": [4.0, 15.0, 0.2], "includesElement__electron_affinity": [0.151, 0.81626, 1.262119], "includesElement__electronegativity_allred-rochow": [0.0002786861, 0.0001838137, 0.0005777778], "includesElement__electronegativity_cottrell-sutton": [0.1797987, 0.1586899, 0.2081666], "includesElement__electronegativity_ghosh": [0.1392532, 0.2390504, 0.224776], "includesElement__electronegativity_gordy": [0.03232759, 0.02518248, 0.04333333], "includesElement__electronegativity_mulliken": [4.026734, 4.340145, 6.261208], "includesElement__electronegativity_nagle": [0.5053195, 0.4451921, 0.7073926], "includesElement__electronegativity_pauling": [1.83, 1.7, 2.55], "includesElement__electronegativity_sanderson": [0.748727, 1.019283, 0.427525], "includesElement__en_ghosh": [0.1392532, 0.2390504, 0.224776], "includesElement__en_pauling": [1.83, 1.7, 2.55], "includesElement__evaporation_heat": [340.0, 824.0], "includesElement__fusion_heat": [13.8, 35.0], "includesElement__glawe_number": [71, 57, 87], "includesElement__group_id": [8, 6, 14], "includesElement__heat_of_formation": [415.5, 851.0, 716.87], "includesElement__is_radioactive": [false], "includesElement__lattice_constant": [2.87, 3.16, 3.57], "includesElement__mendeleev_number": [59, 53, 87], "includesElement__molar_heat_capacity": [25.1, 24.27, 8.517], "includesElement__period": [4, 6, 2], "includesElement__pettifor_number": [61, 56, 95], "includesElement__specific_heat_capacity": [0.449, 0.132, 0.709], "includesElement__vdw_radius": [204.0, 218.0, 170.0], "includesElement__vdw_radius_alvarez": [244.0, 257.0, 177.0], "includesElement__vdw_radius_mm3": [223.0, 239.0, 204.0], "includesElement__vdw_radius_uff": [291.2, 309.6, 385.1], "includesElement__abundance_sea": [0.002, 0.0001, 28.0], "includesElement__atomic_weight_uncertainty": [0.002, 0.01], "includesElement__c6_gb": [548.0, 757.0, 47.9], "includesElement__covalent_radius_bragg": [140.0, 77.0], "includesElement__electronegativity_allen": [10.64, 8.67, 15.05], "includesElement__en_allen": [10.64, 8.67, 15.05], "includesElement__metallic_radius": [117.0, 130.0], "includesElement__metallic_radius_c12": [126.0, 139.0, 86.0], "includesElement__thermal_conductivity": [80.4, 173.0, 1.59], "includesElement__vdw_radius_batsanov": [205.0, 210.0, 170.0], "includesElement__c6": [482.0, 46.6], "includesElement__gas_basicity": [731.1], "includesElement__proton_affinity": [754.0], "includesElement__discovery_year": [1783], "includesElement__vdw_radius_dreiding": [389.83], "includesElement__vdw_radius_bondi": [170.0], "includesElement__vdw_radius_rt": [177.0], "formula": ["C2Fe12W12"], "spacegroup": ["227"], "thermalConductivity": [3.25838], "icsd": ["165458"], "band_gap": [0.0], "density": [14.37608], "density_atomic": [12.88455], "deprecated": [false], "efermi": [7.027689], "energy_above_hull": [0.0], "energy_per_atom": [-10.65461], "formation_energy_per_atom": [-0.05479627], "is_gap_direct": [false], "is_magnetic": [true], "is_metal": [true], "is_stable": [true], "nelements": [3], "nsites": [26], "num_magnetic_sites": [24], "num_unique_magnetic_sites": [3], "theoretical": [false], "total_magnetization": [28.25002], "total_magnetization_normalized_formula_units": [14.12501], "total_magnetization_normalized_vol": [0.08432883], "uncorrected_energy_per_atom": [-31.06508], "volume": [334.9983], "equilibrium_reaction_energy_per_atom": [-0.01996431]}