{"includesElement": ["", "Fe", "Re"], "includesElement___series_id": [8], "includesElement__abundance_crust": [56300.0, 0.0007], "includesElement__atomic_number": [26, 75], "includesElement__atomic_radius": [140.0, 135.0], "includesElement__atomic_radius_rahm": [237.0, 249.0], "includesElement__atomic_volume": [7.1, 8.85], "includesElement__atomic_weight": [55.845, 186.207], "includesElement__covalent_radius_cordero": [142.0, 151.0], "includesElement__covalent_radius_pyykko": [116.0, 131.0], "includesElement__covalent_radius_pyykko_double": [109.0, 119.0], "includesElement__covalent_radius_pyykko_triple": [102.0, 110.0], "includesElement__density": [7.87, 20.8], "includesElement__dipole_polarizability": [62.0], "includesElement__dipole_polarizability_unc": [4.0, 3.0], "includesElement__electron_affinity": [0.151, 0.15], "includesElement__electronegativity_allred-rochow": [0.0002786861, 0.000209778], "includesElement__electronegativity_cottrell-sutton": [0.1797987, 0.1657737], "includesElement__electronegativity_ghosh": [0.1392532, 0.2435164], "includesElement__electronegativity_gordy": [0.03232759, 0.02748092], "includesElement__electronegativity_mulliken": [4.026734, 3.99176], "includesElement__electronegativity_nagle": [0.5053195, 0.4833208], "includesElement__electronegativity_pauling": [1.83, 1.9], "includesElement__electronegativity_sanderson": [0.748727, 1.174592], "includesElement__en_ghosh": [0.1392532, 0.2435164], "includesElement__en_pauling": [1.83, 1.9], "includesElement__evaporation_heat": [340.0, 704.0], "includesElement__fusion_heat": [13.8, 34.0], "includesElement__glawe_number": [71, 58], "includesElement__group_id": [8, 7], "includesElement__heat_of_formation": [415.5, 774.0], "includesElement__is_radioactive": [false], "includesElement__lattice_constant": [2.87, 2.76], "includesElement__mendeleev_number": [59, 57], "includesElement__molar_heat_capacity": [25.1, 25.48], "includesElement__period": [4, 6], "includesElement__pettifor_number": [61, 59], "includesElement__specific_heat_capacity": [0.449, 0.137], "includesElement__vdw_radius": [204.0, 216.0], "includesElement__vdw_radius_alvarez": [244.0, 249.0], "includesElement__vdw_radius_mm3": [223.0, 237.0], "includesElement__vdw_radius_uff": [291.2, 295.4], "includesElement__abundance_sea": [0.002, 4e-06], "includesElement__atomic_weight_uncertainty": [0.002, 0.001], "includesElement__c6_gb": [548.0, 663.0], "includesElement__covalent_radius_bragg": [140.0], "includesElement__electronegativity_allen": [10.64, 9.46], "includesElement__en_allen": [10.64, 9.46], "includesElement__metallic_radius": [117.0, 128.0], "includesElement__metallic_radius_c12": [126.0, 137.0], "includesElement__thermal_conductivity": [80.4, 48.0], "includesElement__vdw_radius_batsanov": [205.0], "includesElement__c6": [482.0], "includesElement__gas_basicity": [731.1], "includesElement__proton_affinity": [754.0], "includesElement__discovery_year": [1925], "formula": ["Fe8Re12"], "spacegroup": ["213"], "thermalConductivity": [5.77256], "icsd": ["108565"], "band_gap": [0.0], "density": [16.74598], "density_atomic": [13.29367], "deprecated": [false], "efermi": [7.19024], "energy_above_hull": [0.0], "energy_per_atom": [-10.866], "formation_energy_per_atom": [-0.009121352], "homogeneous_poisson": [0.25], "is_gap_direct": [false], "is_magnetic": [true], "is_metal": [true], "is_stable": [true], "nelements": [2], "nsites": [20], "num_magnetic_sites": [8], "num_unique_magnetic_sites": [4], "theoretical": [false], "total_magnetization": [15.36793], "total_magnetization_normalized_formula_units": [3.841981], "total_magnetization_normalized_vol": [0.05780168], "uncorrected_energy_per_atom": [-37.11026], "universal_anisotropy": [20167.77], "volume": [265.8733], "equilibrium_reaction_energy_per_atom": [-0.009121352]}