{"includesElement": ["", "Ni", "N", "Mo"], "includesElement___series_id": [8, 1], "includesElement__abundance_crust": [84.0, 19.0, 1.2], "includesElement__atomic_number": [28, 7, 42], "includesElement__atomic_radius": [135.0, 65.0, 145.0], "includesElement__atomic_radius_rahm": [229.0, 179.0, 244.0], "includesElement__atomic_volume": [6.6, 17.3, 9.4], "includesElement__atomic_weight": [58.6934, 14.007, 95.95], "includesElement__covalent_radius_cordero": [124.0, 71.0, 154.0], "includesElement__covalent_radius_pyykko": [110.0, 71.0, 138.0], "includesElement__covalent_radius_pyykko_double": [101.0, 60.0, 121.0], "includesElement__covalent_radius_pyykko_triple": [101.0, 54.0, 113.0], "includesElement__density": [8.9, 0.001145, 10.2], "includesElement__dipole_polarizability": [49.0, 7.4, 87.0], "includesElement__dipole_polarizability_unc": [3.0, 0.2, 6.0], "includesElement__discovery_year": [1751, 1772, 1778], "includesElement__electron_affinity": [1.156, -1.4, 0.748], "includesElement__electronegativity_allred-rochow": [0.0003347107, 0.000773656, 0.0001549044], "includesElement__electronegativity_cottrell-sutton": [0.1918806, 0.2343706, 0.1462081], "includesElement__electronegativity_ghosh": [0.1472068, 0.26493, 0.1312672], "includesElement__electronegativity_gordy": [0.03681818, 0.05492958, 0.02137681], "includesElement__electronegativity_mulliken": [4.397939, 6.567065, 3.920215], "includesElement__electronegativity_nagle": [0.588755, 0.8774979, 0.4100883], "includesElement__electronegativity_pauling": [1.91, 3.04, 2.16], "includesElement__electronegativity_sanderson": [0.937704, 0.577482, 0.685295], "includesElement__en_ghosh": [0.1472068, 0.26493, 0.1312672], "includesElement__en_pauling": [1.91, 3.04, 2.16], "includesElement__evaporation_heat": [378.6, 590.0], "includesElement__fusion_heat": [17.61, 28.0], "includesElement__glawe_number": [69, 88, 56], "includesElement__group_id": [10, 15, 6], "includesElement__heat_of_formation": [430.1, 472.44, 658.98], "includesElement__is_radioactive": [false], "includesElement__lattice_constant": [3.52, 4.039, 3.15], "includesElement__mendeleev_number": [67, 93, 52], "includesElement__molar_heat_capacity": [26.07, 29.124, 24.06], "includesElement__period": [4, 2, 5], "includesElement__pettifor_number": [67, 100, 55], "includesElement__specific_heat_capacity": [0.444, 1.04, 0.251], "includesElement__vdw_radius": [197.0, 155.0, 217.0], "includesElement__vdw_radius_alvarez": [240.0, 166.0, 245.0], "includesElement__vdw_radius_mm3": [222.0, 193.0, 239.0], "includesElement__vdw_radius_uff": [283.4, 366.0, 305.2], "includesElement__abundance_sea": [0.00056, 0.5, 0.01], "includesElement__atomic_weight_uncertainty": [0.0004, 0.01], "includesElement__c6_gb": [393.0, 25.7, 1030.0], "includesElement__covalent_radius_bragg": [135.0, 65.0], "includesElement__electronegativity_allen": [11.13, 18.13, 8.71], "includesElement__en_allen": [11.13, 18.13, 8.71], "includesElement__metallic_radius": [115.0, 130.0], "includesElement__metallic_radius_c12": [124.0, 53.0, 139.0], "includesElement__thermal_conductivity": [90.9, 0.026], "includesElement__vdw_radius_batsanov": [200.0, 160.0, 210.0], "includesElement__c6": [373.0, 24.2], "includesElement__gas_basicity": [714.1, 318.7], "includesElement__proton_affinity": [737.0, 342.2], "includesElement__vdw_radius_dreiding": [366.21], "includesElement__vdw_radius_bondi": [155.0], "includesElement__vdw_radius_rt": [164.0], "formula": ["Mo12N4Ni8"], "spacegroup": ["213"], "thermalConductivity": [6.27578], "icsd": ["165261"], "band_gap": [0.0], "density": [9.624771], "density_atomic": [12.05432], "deprecated": [false], "efermi": [8.501465], "energy_above_hull": [0.0], "energy_per_atom": [-9.056365], "formation_energy_per_atom": [-0.3171152], "homogeneous_poisson": [0.283], "is_gap_direct": [false], "is_magnetic": [false], "is_metal": [true], "is_stable": [true], "nelements": [3], "nsites": [24], "num_magnetic_sites": [0], "num_unique_magnetic_sites": [0], "theoretical": [false], "total_magnetization": [3.26e-05], "total_magnetization_normalized_formula_units": [8.15e-06], "total_magnetization_normalized_vol": [1.126844e-07], "uncorrected_energy_per_atom": [-18.833], "universal_anisotropy": [0.121], "volume": [289.3037], "equilibrium_reaction_energy_per_atom": [-0.09369255]}