{"includesElement": ["", "Si"], "includesElement___series_id": [5], "includesElement__abundance_crust": [282000.0], "includesElement__atomic_number": [14], "includesElement__atomic_radius": [110.0], "includesElement__atomic_radius_rahm": [232.0], "includesElement__atomic_volume": [12.1], "includesElement__atomic_weight": [28.085], "includesElement__covalent_radius_cordero": [111.0], "includesElement__covalent_radius_pyykko": [116.0], "includesElement__covalent_radius_pyykko_double": [107.0], "includesElement__covalent_radius_pyykko_triple": [102.0], "includesElement__density": [2.3296], "includesElement__dipole_polarizability": [37.3], "includesElement__dipole_polarizability_unc": [0.7], "includesElement__discovery_year": [1824], "includesElement__electron_affinity": [1.389521], "includesElement__electronegativity_allred-rochow": [0.0003084126], "includesElement__electronegativity_cottrell-sutton": [0.1891451], "includesElement__electronegativity_ghosh": [0.178503], "includesElement__electronegativity_gordy": [0.03577586], "includesElement__electronegativity_mulliken": [4.770602], "includesElement__electronegativity_nagle": [0.4750986], "includesElement__electronegativity_pauling": [1.9], "includesElement__electronegativity_sanderson": [0.3468158], "includesElement__en_ghosh": [0.178503], "includesElement__en_pauling": [1.9], "includesElement__evaporation_heat": [383.0], "includesElement__fusion_heat": [50.6], "includesElement__glawe_number": [85], "includesElement__group_id": [14], "includesElement__heat_of_formation": [450.0], "includesElement__is_radioactive": [false], "includesElement__lattice_constant": [5.43], "includesElement__mendeleev_number": [88], "includesElement__molar_heat_capacity": [19.99], "includesElement__period": [3], "includesElement__pettifor_number": [85], "includesElement__specific_heat_capacity": [0.712], "includesElement__vdw_radius": [210.0], "includesElement__vdw_radius_alvarez": [219.0], "includesElement__vdw_radius_mm3": [229.0], "includesElement__vdw_radius_uff": [429.5], "includesElement__abundance_sea": [2.2], "includesElement__c6_gb": [308.0], "includesElement__covalent_radius_bragg": [117.0], "includesElement__electronegativity_allen": [11.33], "includesElement__en_allen": [11.33], "includesElement__metallic_radius": [117.0], "includesElement__metallic_radius_c12": [138.0], "includesElement__thermal_conductivity": [149.0], "includesElement__vdw_radius_batsanov": [210.0], "includesElement__c6": [305.0], "includesElement__vdw_radius_dreiding": [427.0], "includesElement__gas_basicity": [814.1], "includesElement__proton_affinity": [837.0], "includesElement__vdw_radius_bondi": [210.0], "formula": ["Si2"], "spacegroup": ["227"], "thermalConductivity": [26.1868], "icsd": ["150530"], "band_gap": [0.6105], "density": [2.3128], "density_atomic": [20.16476], "deprecated": [false], "efermi": [5.630198], "energy_above_hull": [0.0], "energy_per_atom": [-8.773765], "formation_energy_per_atom": [0.0], "has_reconstructed": [true], "homogeneous_poisson": [0.215], "is_gap_direct": [false], "is_magnetic": [false], "is_metal": [false], "is_stable": [true], "nelements": [1], "nsites": [2], "num_magnetic_sites": [0], "num_unique_magnetic_sites": [0], "shape_factor": [5.080958], "surface_anisotropy": [0.04648368], "theoretical": [false], "total_magnetization": [0.0], "total_magnetization_normalized_formula_units": [0.0], "total_magnetization_normalized_vol": [0.0], "uncorrected_energy_per_atom": [-8.773765], "universal_anisotropy": [0.227], "volume": [40.32953], "weighted_surface_energy": [1.327374], "weighted_surface_energy_EV_PER_ANG2": [0.08284817], "weighted_work_function": [4.727598], "cbm": [6.227], "e_electronic": [13.00338], "e_ionic": [0.0], "e_total": [13.00338], "equilibrium_reaction_energy_per_atom": [0.0], "n": [3.60602], "vbm": [5.6165]}