{"includesElement": ["", "W", "C"], "includesElement___series_id": [8, 1], "includesElement__abundance_crust": [1.25, 200.0], "includesElement__atomic_number": [74, 6], "includesElement__atomic_radius": [135.0, 70.0], "includesElement__atomic_radius_rahm": [253.0, 190.0], "includesElement__atomic_volume": [9.53, 5.3], "includesElement__atomic_weight": [183.84, 12.011], "includesElement__covalent_radius_cordero": [162.0, 73.0], "includesElement__covalent_radius_pyykko": [137.0, 75.0], "includesElement__covalent_radius_pyykko_double": [120.0, 67.0], "includesElement__covalent_radius_pyykko_triple": [115.0, 60.0], "includesElement__density": [19.3, 2.2], "includesElement__dipole_polarizability": [68.0, 11.3], "includesElement__dipole_polarizability_unc": [15.0, 0.2], "includesElement__discovery_year": [1783], "includesElement__electron_affinity": [0.81626, 1.262119], "includesElement__electronegativity_allred-rochow": [0.0001838137, 0.0005777778], "includesElement__electronegativity_cottrell-sutton": [0.1586899, 0.2081666], "includesElement__electronegativity_ghosh": [0.2390504, 0.224776], "includesElement__electronegativity_gordy": [0.02518248, 0.04333333], "includesElement__electronegativity_mulliken": [4.340145, 6.261208], "includesElement__electronegativity_nagle": [0.4451921, 0.7073926], "includesElement__electronegativity_pauling": [1.7, 2.55], "includesElement__electronegativity_sanderson": [1.019283, 0.427525], "includesElement__en_ghosh": [0.2390504, 0.224776], "includesElement__en_pauling": [1.7, 2.55], "includesElement__evaporation_heat": [824.0], "includesElement__fusion_heat": [35.0], "includesElement__glawe_number": [57, 87], "includesElement__group_id": [6, 14], "includesElement__heat_of_formation": [851.0, 716.87], "includesElement__is_radioactive": [false], "includesElement__lattice_constant": [3.16, 3.57], "includesElement__mendeleev_number": [53, 87], "includesElement__molar_heat_capacity": [24.27, 8.517], "includesElement__period": [6, 2], "includesElement__pettifor_number": [56, 95], "includesElement__specific_heat_capacity": [0.132, 0.709], "includesElement__vdw_radius": [218.0, 170.0], "includesElement__vdw_radius_alvarez": [257.0, 177.0], "includesElement__vdw_radius_mm3": [239.0, 204.0], "includesElement__vdw_radius_uff": [309.6, 385.1], "includesElement__abundance_sea": [0.0001, 28.0], "includesElement__atomic_weight_uncertainty": [0.01], "includesElement__c6_gb": [757.0, 47.9], "includesElement__electronegativity_allen": [8.67, 15.05], "includesElement__en_allen": [8.67, 15.05], "includesElement__metallic_radius": [130.0], "includesElement__metallic_radius_c12": [139.0, 86.0], "includesElement__thermal_conductivity": [173.0, 1.59], "includesElement__vdw_radius_batsanov": [210.0, 170.0], "includesElement__covalent_radius_bragg": [77.0], "includesElement__c6": [46.6], "includesElement__vdw_radius_dreiding": [389.83], "includesElement__vdw_radius_bondi": [170.0], "includesElement__vdw_radius_rt": [177.0], "formula": ["C3W6"], "spacegroup": ["162"], "thermalConductivity": [13.6675], "icsd": ["167900"], "band_gap": [0.0], "density": [16.53649], "density_atomic": [12.70909], "deprecated": [false], "efermi": [7.87538], "energy_above_hull": [0.08328428], "energy_per_atom": [-11.71282], "formation_energy_per_atom": [0.002152761], "homogeneous_poisson": [0.284], "is_gap_direct": [false], "is_magnetic": [false], "is_metal": [true], "is_stable": [false], "nelements": [2], "nsites": [9], "num_magnetic_sites": [0], "num_unique_magnetic_sites": [0], "theoretical": [true], "total_magnetization": [9.36e-05], "total_magnetization_normalized_formula_units": [3.12e-05], "total_magnetization_normalized_vol": [8.18312e-07], "uncorrected_energy_per_atom": [-11.71282], "universal_anisotropy": [0.249], "volume": [114.3818]}