{"includesElement": ["", "Li", "Sr", "H"], "includesElement___series_id": [3, 4, 1], "includesElement__abundance_crust": [20.0, 370.0, 1400.0], "includesElement__atomic_number": [3, 38, 1], "includesElement__atomic_radius": [145.0, 200.0, 25.0], "includesElement__atomic_radius_rahm": [220.0, 279.0, 154.0], "includesElement__atomic_volume": [13.1, 33.7, 14.1], "includesElement__atomic_weight": [6.94, 87.62, 1.008], "includesElement__covalent_radius_cordero": [128.0, 195.0, 31.0], "includesElement__covalent_radius_pyykko": [133.0, 185.0, 32.0], "includesElement__covalent_radius_pyykko_double": [124.0, 157.0], "includesElement__density": [0.534, 2.64, 8.2e-05], "includesElement__dipole_polarizability": [164.1125, 197.2, 4.50711], "includesElement__dipole_polarizability_unc": [0.0005, 0.2, 3e-05], "includesElement__discovery_year": [1817, 1790, 1766], "includesElement__electron_affinity": [0.618049, 0.048, 0.754195], "includesElement__electronegativity_allred-rochow": [7.3492e-05, 8.327246e-05, 0.0009765625], "includesElement__electronegativity_cottrell-sutton": [0.09886575, 0.1241185, 0.1767767], "includesElement__electronegativity_ghosh": [0.105093, 0.1185082, 0.2638], "includesElement__electronegativity_gordy": [0.009774436, 0.01540541, 0.03125], "includesElement__electronegativity_mulliken": [3.004882, 2.871434, 7.176315], "includesElement__electronegativity_nagle": [0.1826499, 0.2164584, 0.6053882], "includesElement__electronegativity_pauling": [0.98, 0.95, 2.2], "includesElement__electronegativity_sanderson": [0.04886793, 0.2631786, 2.187771], "includesElement__en_ghosh": [0.105093, 0.1185082, 0.2638], "includesElement__en_pauling": [0.98, 0.95, 2.2], "includesElement__evaporation_heat": [148.0, 144.0, 0.904], "includesElement__fusion_heat": [2.89, 9.2, 0.117], "includesElement__glawe_number": [12, 15, 103], "includesElement__group_id": [1, 2], "includesElement__heat_of_formation": [159.3, 164.0, 217.998], "includesElement__is_radioactive": [false], "includesElement__lattice_constant": [3.49, 6.08, 3.75], "includesElement__mendeleev_number": [1, 8, 105], "includesElement__molar_heat_capacity": [24.86, 26.79, 28.836], "includesElement__period": [2, 5, 1], "includesElement__pettifor_number": [12, 15, 103], "includesElement__specific_heat_capacity": [3.582, 0.306, 14.304], "includesElement__vdw_radius": [182.0, 249.0, 110.0], "includesElement__vdw_radius_alvarez": [212.0, 284.0, 120.0], "includesElement__vdw_radius_mm3": [255.0, 300.0, 162.0], "includesElement__vdw_radius_uff": [245.1, 364.1, 288.6], "includesElement__abundance_sea": [0.18, 7.9, 108000.0], "includesElement__c6_gb": [1410.0, 3230.0, 6.51], "includesElement__covalent_radius_bragg": [150.0, 195.0], "includesElement__electronegativity_allen": [5.392, 5.695, 13.61], "includesElement__en_allen": [5.392, 5.695, 13.61], "includesElement__metallic_radius": [123.0, 191.0], "includesElement__metallic_radius_c12": [155.0, 215.0, 78.0], "includesElement__thermal_conductivity": [84.8, 0.1815], "includesElement__vdw_radius_batsanov": [220.0, 255.0], "includesElement__c6": [1392.0, 3175.0, 6.499027], "includesElement__vdw_radius_bondi": [181.0, 120.0], "includesElement__covalent_radius_pyykko_triple": [139.0], "includesElement__atomic_weight_uncertainty": [0.01], "includesElement__vdw_radius_truhlar": [249.0], "includesElement__vdw_radius_dreiding": [319.5], "includesElement__vdw_radius_rt": [110.0], "formula": ["H3Li1Sr1"], "spacegroup": ["221"], "thermalConductivity": [1.54969], "icsd": ["23978"], "band_gap": [1.8195], "density": [1.631796], "density_atomic": [19.86075], "deprecated": [false], "efermi": [-1.579212], "energy_above_hull": [0.4577829], "energy_per_atom": [-2.887326], "formation_energy_per_atom": [-0.1299563], "is_gap_direct": [false], "is_magnetic": [false], "is_metal": [false], "is_stable": [false], "nelements": [3], "nsites": [5], "num_magnetic_sites": [0], "num_unique_magnetic_sites": [0], "theoretical": [false], "total_magnetization": [0.0], "total_magnetization_normalized_formula_units": [0.0], "total_magnetization_normalized_vol": [0.0], "uncorrected_energy_per_atom": [-2.779926], "volume": [99.30373], "cbm": [0.1728], "vbm": [-1.6467]}