{"includesElement": ["", "Ni", "Sb", "Cu"], "includesElement___series_id": [8, 5], "includesElement__abundance_crust": [84.0, 0.2, 60.0], "includesElement__atomic_number": [28, 51, 29], "includesElement__atomic_radius": [135.0, 145.0], "includesElement__atomic_radius_rahm": [229.0, 246.0, 217.0], "includesElement__atomic_volume": [6.6, 18.4, 7.1], "includesElement__atomic_weight": [58.6934, 121.76, 63.546], "includesElement__covalent_radius_cordero": [124.0, 139.0, 132.0], "includesElement__covalent_radius_pyykko": [110.0, 140.0, 112.0], "includesElement__covalent_radius_pyykko_double": [101.0, 133.0, 115.0], "includesElement__covalent_radius_pyykko_triple": [101.0, 127.0, 120.0], "includesElement__density": [8.9, 6.68, 8.96], "includesElement__dipole_polarizability": [49.0, 43.0, 46.5], "includesElement__dipole_polarizability_unc": [3.0, 2.0, 0.5], "includesElement__discovery_year": [1751], "includesElement__electron_affinity": [1.156, 1.046, 1.235], "includesElement__electronegativity_allred-rochow": [0.0003347107, 0.0003214286, 0.0002949617], "includesElement__electronegativity_cottrell-sutton": [0.1918806, 0.212132, 0.1817573], "includesElement__electronegativity_ghosh": [0.1472068, 0.1918774, 0.1511716], "includesElement__electronegativity_gordy": [0.03681818, 0.045, 0.03303571], "includesElement__electronegativity_mulliken": [4.397939, 4.827195, 4.48069], "includesElement__electronegativity_nagle": [0.588755, 0.4880907, 0.6184623], "includesElement__electronegativity_pauling": [1.91, 2.05, 1.9], "includesElement__electronegativity_sanderson": [0.937704, 0.7762722, 0.9175542], "includesElement__en_ghosh": [0.1472068, 0.1918774, 0.1511716], "includesElement__en_pauling": [1.91, 2.05, 1.9], "includesElement__evaporation_heat": [378.6, 195.2, 304.6], "includesElement__fusion_heat": [17.61, 20.08, 13.01], "includesElement__glawe_number": [69, 91, 68], "includesElement__group_id": [10, 15, 11], "includesElement__heat_of_formation": [430.1, 264.4, 337.4], "includesElement__is_radioactive": [false], "includesElement__lattice_constant": [3.52, 4.51, 3.61], "includesElement__mendeleev_number": [67, 96, 71], "includesElement__molar_heat_capacity": [26.07, 25.23, 24.44], "includesElement__period": [4, 5], "includesElement__pettifor_number": [67, 88, 72], "includesElement__specific_heat_capacity": [0.444, 0.207, 0.385], "includesElement__vdw_radius": [197.0, 206.0, 196.0], "includesElement__vdw_radius_alvarez": [240.0, 247.0, 238.0], "includesElement__vdw_radius_mm3": [222.0, 252.0, 226.0], "includesElement__vdw_radius_uff": [283.4, 442.0, 349.5], "includesElement__abundance_sea": [0.00056, 0.00024, 0.00025], "includesElement__atomic_weight_uncertainty": [0.0004, 0.001, 0.003], "includesElement__c6_gb": [393.0, 504.0, 264.0], "includesElement__covalent_radius_bragg": [135.0, 140.0, 137.0], "includesElement__electronegativity_allen": [11.13, 11.74, 10.96], "includesElement__en_allen": [11.13, 11.74, 10.96], "includesElement__metallic_radius": [115.0, 139.0, 118.0], "includesElement__metallic_radius_c12": [124.0, 166.0, 128.0], "includesElement__thermal_conductivity": [90.9, 24.43, 401.0], "includesElement__vdw_radius_batsanov": [200.0, 220.0], "includesElement__c6": [373.0, 492.0, 253.0], "includesElement__gas_basicity": [714.1, 632.4], "includesElement__proton_affinity": [737.0, 655.3], "includesElement__vdw_radius_dreiding": [435.0], "includesElement__vdw_radius_truhlar": [206.0], "formula": ["Cu1Ni2Sb1"], "spacegroup": ["225"], "thermalConductivity": [2.46569], "icsd": ["53320"], "band_gap": [0.0], "density": [9.412687], "density_atomic": [13.34989], "deprecated": [false], "efermi": [10.07702], "energy_above_hull": [0.05299728], "energy_per_atom": [-15.20325], "formation_energy_per_atom": [-0.07411527], "homogeneous_poisson": [0.415], "is_gap_direct": [false], "is_magnetic": [false], "is_metal": [true], "is_stable": [false], "nelements": [3], "nsites": [4], "num_magnetic_sites": [0], "num_unique_magnetic_sites": [0], "theoretical": [false], "total_magnetization": [1.62e-05], "total_magnetization_normalized_formula_units": [1.62e-05], "total_magnetization_normalized_vol": [3.033734e-07], "uncorrected_energy_per_atom": [-5.038509], "universal_anisotropy": [33.774], "volume": [53.39955]}