{"includesElement": ["", "O", "Mo"], "includesElement___series_id": [1, 8], "includesElement__abundance_crust": [461000.0, 1.2], "includesElement__atomic_number": [8, 42], "includesElement__atomic_radius": [60.0, 145.0], "includesElement__atomic_radius_rahm": [171.0, 244.0], "includesElement__atomic_volume": [14.0, 9.4], "includesElement__atomic_weight": [15.999, 95.95], "includesElement__covalent_radius_cordero": [66.0, 154.0], "includesElement__covalent_radius_pyykko": [63.0, 138.0], "includesElement__covalent_radius_pyykko_double": [57.0, 121.0], "includesElement__covalent_radius_pyykko_triple": [53.0, 113.0], "includesElement__density": [0.001308, 10.2], "includesElement__dipole_polarizability": [5.3, 87.0], "includesElement__dipole_polarizability_unc": [0.2, 6.0], "includesElement__discovery_year": [1774, 1778], "includesElement__electron_affinity": [1.461113, 0.748], "includesElement__electronegativity_allred-rochow": [0.001146384, 0.0001549044], "includesElement__electronegativity_cottrell-sutton": [0.2687419, 0.1462081], "includesElement__electronegativity_ghosh": [0.304575, 0.1312672], "includesElement__electronegativity_gordy": [0.07222222, 0.02137681], "includesElement__electronegativity_mulliken": [7.539584, 3.920215], "includesElement__electronegativity_nagle": [1.042218, 0.4100883], "includesElement__electronegativity_pauling": [3.44, 2.16], "includesElement__electronegativity_sanderson": [0.9416494, 0.685295], "includesElement__en_ghosh": [0.304575, 0.1312672], "includesElement__en_pauling": [3.44, 2.16], "includesElement__glawe_number": [97, 56], "includesElement__group_id": [16, 6], "includesElement__heat_of_formation": [249.229, 658.98], "includesElement__is_radioactive": [false], "includesElement__lattice_constant": [6.83, 3.15], "includesElement__mendeleev_number": [99, 52], "includesElement__molar_heat_capacity": [29.378, 24.06], "includesElement__period": [2, 5], "includesElement__pettifor_number": [101, 55], "includesElement__specific_heat_capacity": [0.918, 0.251], "includesElement__vdw_radius": [152.0, 217.0], "includesElement__vdw_radius_alvarez": [150.0, 245.0], "includesElement__vdw_radius_mm3": [182.0, 239.0], "includesElement__vdw_radius_uff": [350.0, 305.2], "includesElement__abundance_sea": [857000.0, 0.01], "includesElement__c6_gb": [16.7, 1030.0], "includesElement__covalent_radius_bragg": [65.0], "includesElement__electronegativity_allen": [21.36, 8.71], "includesElement__en_allen": [21.36, 8.71], "includesElement__thermal_conductivity": [0.027], "includesElement__vdw_radius_batsanov": [155.0, 210.0], "includesElement__c6": [15.6], "includesElement__vdw_radius_dreiding": [340.46], "includesElement__gas_basicity": [459.6], "includesElement__proton_affinity": [485.2], "includesElement__vdw_radius_bondi": [152.0], "includesElement__vdw_radius_rt": [158.0], "includesElement__evaporation_heat": [590.0], "includesElement__fusion_heat": [28.0], "includesElement__atomic_weight_uncertainty": [0.01], "includesElement__metallic_radius": [130.0], "includesElement__metallic_radius_c12": [139.0], "formula": ["Mo2O4"], "spacegroup": ["136"], "thermalConductivity": [12.0956], "icsd": ["644069"], "band_gap": [0.0], "density": [6.198718], "density_atomic": [11.42426], "deprecated": [false], "efermi": [4.622194], "energy_above_hull": [0.0], "energy_per_atom": [-8.935413], "formation_energy_per_atom": [-2.018687], "is_gap_direct": [false], "is_magnetic": [true], "is_metal": [true], "is_stable": [true], "nelements": [2], "nsites": [12], "num_magnetic_sites": [2], "num_unique_magnetic_sites": [1], "theoretical": [false], "total_magnetization": [7.999985], "total_magnetization_normalized_formula_units": [1.999996], "total_magnetization_normalized_vol": [0.05835522], "uncorrected_energy_per_atom": [-7.410079], "volume": [137.0912], "cbm": [4.5955], "equilibrium_reaction_energy_per_atom": [-0.2808097], "vbm": [4.625]}