{"includesElement": ["", "S", "Co"], "includesElement___series_id": [1, 8], "includesElement__abundance_crust": [350.0, 25.0], "includesElement__atomic_number": [16, 27], "includesElement__atomic_radius": [100.0, 135.0], "includesElement__atomic_radius_rahm": [214.0, 233.0], "includesElement__atomic_volume": [15.5, 6.7], "includesElement__atomic_weight": [32.06, 58.93319], "includesElement__covalent_radius_cordero": [105.0, 138.0], "includesElement__covalent_radius_pyykko": [103.0, 111.0], "includesElement__covalent_radius_pyykko_double": [94.0, 103.0], "includesElement__covalent_radius_pyykko_triple": [95.0, 96.0], "includesElement__density": [2.07, 8.86], "includesElement__dipole_polarizability": [19.4, 55.0], "includesElement__dipole_polarizability_unc": [0.1, 4.0], "includesElement__electron_affinity": [2.077104, 0.6622565], "includesElement__electronegativity_allred-rochow": [0.0005137148, 0.0003165327], "includesElement__electronegativity_cottrell-sutton": [0.2300274, 0.1874437], "includesElement__electronegativity_ghosh": [0.23596, 0.1432363], "includesElement__electronegativity_gordy": [0.05291262, 0.03513514], "includesElement__electronegativity_mulliken": [6.218557, 4.271633], "includesElement__electronegativity_nagle": [0.6762644, 0.5469655], "includesElement__electronegativity_pauling": [2.58, 1.88], "includesElement__electronegativity_sanderson": [0.6397251, 0.8832424], "includesElement__en_ghosh": [0.23596, 0.1432363], "includesElement__en_pauling": [2.58, 1.88], "includesElement__evaporation_heat": [10.5, 389.1], "includesElement__fusion_heat": [1.23, 15.48], "includesElement__glawe_number": [96, 70], "includesElement__group_id": [16, 9], "includesElement__heat_of_formation": [277.17, 426.7], "includesElement__is_radioactive": [false], "includesElement__lattice_constant": [10.47, 2.51], "includesElement__mendeleev_number": [100, 63], "includesElement__molar_heat_capacity": [22.7, 24.81], "includesElement__period": [3, 4], "includesElement__pettifor_number": [94, 64], "includesElement__specific_heat_capacity": [0.708, 0.421], "includesElement__vdw_radius": [180.0, 200.0], "includesElement__vdw_radius_alvarez": [189.0, 240.0], "includesElement__vdw_radius_mm3": [215.0, 223.0], "includesElement__vdw_radius_uff": [403.5, 287.2], "includesElement__abundance_sea": [905.0, 2e-05], "includesElement__c6_gb": [140.0, 461.0], "includesElement__covalent_radius_bragg": [102.0, 137.0], "includesElement__electronegativity_allen": [15.31, 10.86], "includesElement__en_allen": [15.31, 10.86], "includesElement__metallic_radius": [104.0, 116.0], "includesElement__metallic_radius_c12": [127.0, 125.0], "includesElement__thermal_conductivity": [0.27, 100.0], "includesElement__vdw_radius_batsanov": [180.0, 200.0], "includesElement__c6": [134.0, 408.0], "includesElement__vdw_radius_dreiding": [403.0], "includesElement__gas_basicity": [640.2, 719.8], "includesElement__proton_affinity": [664.3, 742.7], "includesElement__vdw_radius_bondi": [180.0], "includesElement__vdw_radius_rt": [181.0], "includesElement__discovery_year": [1739], "includesElement__atomic_weight_uncertainty": [4e-06], "includesElement__is_monoisotopic": [true], "formula": ["Co6S8"], "spacegroup": ["227"], "thermalConductivity": [2.30412], "icsd": ["106489"], "band_gap": [0.0], "density": [4.767149], "density_atomic": [15.18018], "deprecated": [false], "efermi": [6.144869], "energy_above_hull": [0.0], "energy_per_atom": [-10.77488], "formation_energy_per_atom": [-0.5116394], "is_gap_direct": [false], "is_magnetic": [true], "is_metal": [true], "is_stable": [true], "nelements": [2], "nsites": [14], "num_magnetic_sites": [6], "num_unique_magnetic_sites": [2], "theoretical": [false], "total_magnetization": [5.940716], "total_magnetization_normalized_formula_units": [2.970358], "total_magnetization_normalized_vol": [0.02795334], "uncorrected_energy_per_atom": [-10.77488], "volume": [212.5226], "equilibrium_reaction_energy_per_atom": [-0.06499972]}