{"includesElement": ["", "S", "Pb"], "includesElement___series_id": [1, 7], "includesElement__abundance_crust": [350.0, 14.0], "includesElement__atomic_number": [16, 82], "includesElement__atomic_radius": [100.0, 180.0], "includesElement__atomic_radius_rahm": [214.0, 249.0], "includesElement__atomic_volume": [15.5, 18.3], "includesElement__atomic_weight": [32.06, 207.2], "includesElement__covalent_radius_cordero": [105.0, 146.0], "includesElement__covalent_radius_pyykko": [103.0, 144.0], "includesElement__covalent_radius_pyykko_double": [94.0, 135.0], "includesElement__covalent_radius_pyykko_triple": [95.0, 137.0], "includesElement__density": [2.07, 11.3], "includesElement__dipole_polarizability": [19.4, 47.0], "includesElement__dipole_polarizability_unc": [0.1, 3.0], "includesElement__electron_affinity": [2.077104, 0.3567432], "includesElement__electronegativity_allred-rochow": [0.0005137148, 0.000272473], "includesElement__electronegativity_cottrell-sutton": [0.2300274, 0.1980811], "includesElement__electronegativity_ghosh": [0.23596, 0.177911], "includesElement__electronegativity_gordy": [0.05291262, 0.03923611], "includesElement__electronegativity_mulliken": [6.218557, 3.886711], "includesElement__electronegativity_nagle": [0.6762644, 0.4398663], "includesElement__electronegativity_pauling": [2.58, 1.8], "includesElement__electronegativity_sanderson": [0.6397251, 0.9313226], "includesElement__en_ghosh": [0.23596, 0.177911], "includesElement__en_pauling": [2.58, 1.8], "includesElement__evaporation_heat": [10.5, 177.8], "includesElement__fusion_heat": [1.23, 4.77], "includesElement__glawe_number": [96, 82], "includesElement__group_id": [16, 14], "includesElement__heat_of_formation": [277.17, 195.2], "includesElement__is_radioactive": [false], "includesElement__lattice_constant": [10.47, 4.95], "includesElement__mendeleev_number": [100, 91], "includesElement__molar_heat_capacity": [22.7, 26.84], "includesElement__period": [3, 6], "includesElement__pettifor_number": [94, 82], "includesElement__specific_heat_capacity": [0.708, 0.13], "includesElement__vdw_radius": [180.0, 202.0], "includesElement__vdw_radius_alvarez": [189.0, 260.0], "includesElement__vdw_radius_mm3": [215.0, 274.0], "includesElement__vdw_radius_uff": [403.5, 429.7], "includesElement__abundance_sea": [905.0, 3e-05], "includesElement__c6_gb": [140.0, 534.0], "includesElement__covalent_radius_bragg": [102.0], "includesElement__electronegativity_allen": [15.31, 10.97], "includesElement__en_allen": [15.31, 10.97], "includesElement__metallic_radius": [104.0, 150.0], "includesElement__metallic_radius_c12": [127.0, 170.0], "includesElement__thermal_conductivity": [0.27, 35.3], "includesElement__vdw_radius_batsanov": [180.0, 230.0], "includesElement__c6": [134.0], "includesElement__vdw_radius_dreiding": [403.0], "includesElement__gas_basicity": [640.2], "includesElement__proton_affinity": [664.3], "includesElement__vdw_radius_bondi": [180.0, 202.0], "includesElement__vdw_radius_rt": [181.0], "includesElement__atomic_weight_uncertainty": [0.1], "formula": ["Pb1S1"], "spacegroup": ["225"], "thermalConductivity": [6.10266], "icsd": ["169770"], "band_gap": [0.4667], "density": [7.445972], "density_atomic": [26.67945], "deprecated": [false], "efermi": [5.39027], "energy_above_hull": [0.0], "energy_per_atom": [-4.709073], "formation_energy_per_atom": [-0.7835694], "is_gap_direct": [true], "is_magnetic": [false], "is_metal": [false], "is_stable": [true], "nelements": [2], "nsites": [8], "num_magnetic_sites": [0], "num_unique_magnetic_sites": [0], "theoretical": [false], "total_magnetization": [0.0], "total_magnetization_normalized_formula_units": [0.0], "total_magnetization_normalized_vol": [0.0], "uncorrected_energy_per_atom": [-4.457573], "volume": [213.4356], "cbm": [5.8134], "e_electronic": [16.39529], "e_ionic": [307.361], "e_total": [323.7563], "equilibrium_reaction_energy_per_atom": [-0.3176007], "n": [4.04911], "vbm": [5.3467]}