{"includesElement": ["", "Ba", "S"], "includesElement___series_id": [4, 1], "includesElement__abundance_crust": [425.0, 350.0], "includesElement__atomic_number": [56, 16], "includesElement__atomic_radius": [215.0, 100.0], "includesElement__atomic_radius_rahm": [293.0, 214.0], "includesElement__atomic_volume": [39.0, 15.5], "includesElement__atomic_weight": [137.327, 32.06], "includesElement__covalent_radius_cordero": [215.0, 105.0], "includesElement__covalent_radius_pyykko": [196.0, 103.0], "includesElement__covalent_radius_pyykko_double": [161.0, 94.0], "includesElement__covalent_radius_pyykko_triple": [149.0, 95.0], "includesElement__density": [3.62, 2.07], "includesElement__dipole_polarizability": [272.0, 19.4], "includesElement__dipole_polarizability_unc": [10.0, 0.1], "includesElement__discovery_year": [1808], "includesElement__electron_affinity": [0.14462, 2.077104], "includesElement__electronegativity_allred-rochow": [7.418784e-05, 0.0005137148], "includesElement__electronegativity_cottrell-sutton": [0.1205853, 0.2300274], "includesElement__electronegativity_ghosh": [0.1586786, 0.23596], "includesElement__electronegativity_gordy": [0.01454082, 0.05291262], "includesElement__electronegativity_mulliken": [2.678142, 6.218557], "includesElement__electronegativity_nagle": [0.1944556, 0.6762644], "includesElement__electronegativity_pauling": [0.89, 2.58], "includesElement__electronegativity_sanderson": [0.3032951, 0.6397251], "includesElement__en_ghosh": [0.1586786, 0.23596], "includesElement__en_pauling": [0.89, 2.58], "includesElement__evaporation_heat": [142.0, 10.5], "includesElement__fusion_heat": [7.66, 1.23], "includesElement__glawe_number": [14, 96], "includesElement__group_id": [2, 16], "includesElement__heat_of_formation": [179.1, 277.17], "includesElement__is_radioactive": [false], "includesElement__lattice_constant": [5.02, 10.47], "includesElement__mendeleev_number": [9, 100], "includesElement__molar_heat_capacity": [28.07, 22.7], "includesElement__period": [6, 3], "includesElement__pettifor_number": [14, 94], "includesElement__specific_heat_capacity": [0.204, 0.708], "includesElement__vdw_radius": [268.0, 180.0], "includesElement__vdw_radius_alvarez": [303.0, 189.0], "includesElement__vdw_radius_mm3": [307.0, 215.0], "includesElement__vdw_radius_uff": [370.3, 403.5], "includesElement__abundance_sea": [0.013, 905.0], "includesElement__atomic_weight_uncertainty": [0.007], "includesElement__c6_gb": [5540.0, 140.0], "includesElement__covalent_radius_bragg": [210.0, 102.0], "includesElement__electronegativity_allen": [5.211, 15.31], "includesElement__en_allen": [5.211, 15.31], "includesElement__metallic_radius": [198.0, 104.0], "includesElement__metallic_radius_c12": [222.0, 127.0], "includesElement__vdw_radius_batsanov": [270.0, 180.0], "includesElement__vdw_radius_truhlar": [268.0], "includesElement__thermal_conductivity": [0.27], "includesElement__c6": [134.0], "includesElement__vdw_radius_dreiding": [403.0], "includesElement__gas_basicity": [640.2], "includesElement__proton_affinity": [664.3], "includesElement__vdw_radius_bondi": [180.0], "includesElement__vdw_radius_rt": [181.0], "formula": ["Ba1S1", "BaS"], "mp_id": ["mp-1500"], "spacegroup": ["225"], "thermalConductivity": [5.63285, 6.522572, 6.615991], "icsd": ["30240"], "band_gap": [2.1488], "density": [4.190346], "density_atomic": [33.5631], "deprecated": [false], "efermi": [1.357009], "energy_above_hull": [0.0], "energy_per_atom": [-5.357752], "formation_energy_per_atom": [-2.329084], "homogeneous_poisson": [0.249], "is_gap_direct": [false], "is_magnetic": [false], "is_metal": [false], "is_stable": [true], "nelements": [2], "nsites": [2], "num_magnetic_sites": [0], "num_unique_magnetic_sites": [0], "theoretical": [false], "total_magnetization": [0.0], "total_magnetization_normalized_formula_units": [0.0], "total_magnetization_normalized_vol": [0.0], "uncorrected_energy_per_atom": [-19.60392], "universal_anisotropy": [0.561], "volume": [67.1262], "cbm": [3.4504], "e_electronic": [4.805871], "e_ionic": [10.14717], "e_total": [14.95305], "equilibrium_reaction_energy_per_atom": [-1.01491], "n": [2.19223], "vbm": [1.3016]}