{"includesElement": ["", "Sn", "S"], "includesElement___series_id": [7, 1], "includesElement__abundance_crust": [2.3, 350.0], "includesElement__atomic_number": [50, 16], "includesElement__atomic_radius": [145.0, 100.0], "includesElement__atomic_radius_rahm": [248.0, 214.0], "includesElement__atomic_volume": [16.3, 15.5], "includesElement__atomic_weight": [118.71, 32.06], "includesElement__covalent_radius_cordero": [139.0, 105.0], "includesElement__covalent_radius_pyykko": [140.0, 103.0], "includesElement__covalent_radius_pyykko_double": [130.0, 94.0], "includesElement__covalent_radius_pyykko_triple": [132.0, 95.0], "includesElement__density": [7.287, 2.07], "includesElement__dipole_polarizability": [53.0, 19.4], "includesElement__dipole_polarizability_unc": [6.0, 0.1], "includesElement__electron_affinity": [1.112067, 2.077104], "includesElement__electronegativity_allred-rochow": [0.0002882653, 0.0005137148], "includesElement__electronegativity_cottrell-sutton": [0.2008909, 0.2300274], "includesElement__electronegativity_ghosh": [0.178052, 0.23596], "includesElement__electronegativity_gordy": [0.04035714, 0.05291262], "includesElement__electronegativity_mulliken": [4.227992, 6.218557], "includesElement__electronegativity_nagle": [0.4225986, 0.6762644], "includesElement__electronegativity_pauling": [1.96, 2.58], "includesElement__electronegativity_sanderson": [0.7622797, 0.6397251], "includesElement__en_ghosh": [0.178052, 0.23596], "includesElement__en_pauling": [1.96, 2.58], "includesElement__evaporation_heat": [296.0, 10.5], "includesElement__fusion_heat": [7.07, 1.23], "includesElement__glawe_number": [83, 96], "includesElement__group_id": [14, 16], "includesElement__heat_of_formation": [301.2, 277.17], "includesElement__is_radioactive": [false], "includesElement__lattice_constant": [5.82, 10.47], "includesElement__mendeleev_number": [90, 100], "includesElement__molar_heat_capacity": [26.99, 22.7], "includesElement__period": [5, 3], "includesElement__pettifor_number": [83, 94], "includesElement__specific_heat_capacity": [0.227, 0.708], "includesElement__vdw_radius": [217.0, 180.0], "includesElement__vdw_radius_alvarez": [242.0, 189.0], "includesElement__vdw_radius_mm3": [259.0, 215.0], "includesElement__vdw_radius_uff": [439.2, 403.5], "includesElement__abundance_sea": [4e-06, 905.0], "includesElement__atomic_weight_uncertainty": [0.007], "includesElement__c6_gb": [715.0, 140.0], "includesElement__covalent_radius_bragg": [140.0, 102.0], "includesElement__electronegativity_allen": [10.79, 15.31], "includesElement__en_allen": [10.79, 15.31], "includesElement__metallic_radius": [142.0, 104.0], "includesElement__metallic_radius_c12": [163.0, 127.0], "includesElement__thermal_conductivity": [66.8, 0.27], "includesElement__vdw_radius_batsanov": [225.0, 180.0], "includesElement__c6": [659.0, 134.0], "includesElement__vdw_radius_dreiding": [447.0, 403.0], "includesElement__vdw_radius_bondi": [217.0, 180.0], "includesElement__gas_basicity": [640.2], "includesElement__proton_affinity": [664.3], "includesElement__vdw_radius_rt": [181.0], "formula": ["S1Sn1"], "spacegroup": ["225"], "thermalConductivity": [8.0644], "icsd": ["52107"], "band_gap": [0.0894], "density": [5.104741], "density_atomic": [24.52306], "deprecated": [false], "efermi": [6.506688], "energy_above_hull": [0.09162598], "energy_per_atom": [-16.77057], "formation_energy_per_atom": [-0.3799742], "homogeneous_poisson": [0.257], "is_gap_direct": [true], "is_magnetic": [false], "is_metal": [false], "is_stable": [false], "nelements": [2], "nsites": [2], "num_magnetic_sites": [0], "num_unique_magnetic_sites": [0], "theoretical": [false], "total_magnetization": [0.0], "total_magnetization_normalized_formula_units": [0.0], "total_magnetization_normalized_vol": [0.0], "uncorrected_energy_per_atom": [-16.77057], "universal_anisotropy": [1.415], "volume": [49.04613], "cbm": [6.5391], "vbm": [6.4497]}