{"includesElement": ["", "Ru"], "includesElement___series_id": [8], "includesElement__abundance_crust": [0.001], "includesElement__atomic_number": [44], "includesElement__atomic_radius": [130.0], "includesElement__atomic_radius_rahm": [237.0], "includesElement__atomic_volume": [8.3], "includesElement__atomic_weight": [101.07], "includesElement__covalent_radius_cordero": [146.0], "includesElement__covalent_radius_pyykko": [125.0], "includesElement__covalent_radius_pyykko_double": [114.0], "includesElement__covalent_radius_pyykko_triple": [103.0], "includesElement__density": [12.1], "includesElement__dipole_polarizability": [72.0], "includesElement__dipole_polarizability_unc": [10.0], "includesElement__discovery_year": [1844], "includesElement__electron_affinity": [1.05], "includesElement__electronegativity_allred-rochow": [0.000208], "includesElement__electronegativity_cottrell-sutton": [0.1612452], "includesElement__electronegativity_ghosh": [0.1376494], "includesElement__electronegativity_gordy": [0.026], "includesElement__electronegativity_mulliken": [4.20525], "includesElement__electronegativity_nagle": [0.4807499], "includesElement__electronegativity_pauling": [2.2], "includesElement__electronegativity_sanderson": [0.9579373], "includesElement__en_ghosh": [0.1376494], "includesElement__en_pauling": [2.2], "includesElement__fusion_heat": [25.5], "includesElement__glawe_number": [61], "includesElement__group_id": [8], "includesElement__heat_of_formation": [650.6], "includesElement__is_radioactive": [false], "includesElement__lattice_constant": [2.7], "includesElement__mendeleev_number": [60], "includesElement__molar_heat_capacity": [24.06], "includesElement__period": [5], "includesElement__pettifor_number": [63], "includesElement__specific_heat_capacity": [0.238], "includesElement__vdw_radius": [213.0], "includesElement__vdw_radius_alvarez": [246.0], "includesElement__vdw_radius_mm3": [234.0], "includesElement__vdw_radius_uff": [296.3], "includesElement__abundance_sea": [7e-07], "includesElement__atomic_weight_uncertainty": [0.02], "includesElement__c6_gb": [809.0], "includesElement__electronegativity_allen": [9.1], "includesElement__en_allen": [9.1], "includesElement__metallic_radius": [125.0], "includesElement__metallic_radius_c12": [134.0], "includesElement__thermal_conductivity": [117.0], "includesElement__vdw_radius_batsanov": [205.0], "includesElement__gas_basicity": [751.4], "includesElement__proton_affinity": [774.0], "formula": ["Ru2"], "spacegroup": ["194"], "thermalConductivity": [42.7524], "icsd": ["40354"], "band_gap": [0.0], "density": [12.38495], "density_atomic": [13.55118], "deprecated": [false], "efermi": [8.371856], "energy_above_hull": [0.0], "energy_per_atom": [-25.42454], "formation_energy_per_atom": [0.0], "has_reconstructed": [false], "homogeneous_poisson": [0.241], "is_gap_direct": [false], "is_magnetic": [false], "is_metal": [true], "is_stable": [true], "nelements": [1], "nsites": [2], "num_magnetic_sites": [0], "num_unique_magnetic_sites": [0], "shape_factor": [5.063387], "surface_anisotropy": [0.05312567], "theoretical": [false], "total_magnetization": [7e-07], "total_magnetization_normalized_formula_units": [3.5e-07], "total_magnetization_normalized_vol": [2.582802e-08], "uncorrected_energy_per_atom": [-25.42454], "universal_anisotropy": [0.021], "volume": [27.10235], "weighted_surface_energy": [2.882309], "weighted_surface_energy_EV_PER_ANG2": [0.1798996], "weighted_work_function": [4.754906], "equilibrium_reaction_energy_per_atom": [0.0]}