{"includesElement": ["", "O", "C"], "includesElement___series_id": [1], "includesElement__abundance_crust": [461000.0, 200.0], "includesElement__atomic_number": [8, 6], "includesElement__atomic_radius": [60.0, 70.0], "includesElement__atomic_radius_rahm": [171.0, 190.0], "includesElement__atomic_volume": [14.0, 5.3], "includesElement__atomic_weight": [15.999, 12.011], "includesElement__covalent_radius_cordero": [66.0, 73.0], "includesElement__covalent_radius_pyykko": [63.0, 75.0], "includesElement__covalent_radius_pyykko_double": [57.0, 67.0], "includesElement__covalent_radius_pyykko_triple": [53.0, 60.0], "includesElement__density": [0.001308, 2.2], "includesElement__dipole_polarizability": [5.3, 11.3], "includesElement__dipole_polarizability_unc": [0.2], "includesElement__discovery_year": [1774], "includesElement__electron_affinity": [1.461113, 1.262119], "includesElement__electronegativity_allred-rochow": [0.001146384, 0.0005777778], "includesElement__electronegativity_cottrell-sutton": [0.2687419, 0.2081666], "includesElement__electronegativity_ghosh": [0.304575, 0.224776], "includesElement__electronegativity_gordy": [0.07222222, 0.04333333], "includesElement__electronegativity_mulliken": [7.539584, 6.261208], "includesElement__electronegativity_nagle": [1.042218, 0.7073926], "includesElement__electronegativity_pauling": [3.44, 2.55], "includesElement__electronegativity_sanderson": [0.9416494, 0.427525], "includesElement__en_ghosh": [0.304575, 0.224776], "includesElement__en_pauling": [3.44, 2.55], "includesElement__glawe_number": [97, 87], "includesElement__group_id": [16, 14], "includesElement__heat_of_formation": [249.229, 716.87], "includesElement__is_radioactive": [false], "includesElement__lattice_constant": [6.83, 3.57], "includesElement__mendeleev_number": [99, 87], "includesElement__molar_heat_capacity": [29.378, 8.517], "includesElement__period": [2], "includesElement__pettifor_number": [101, 95], "includesElement__specific_heat_capacity": [0.918, 0.709], "includesElement__vdw_radius": [152.0, 170.0], "includesElement__vdw_radius_alvarez": [150.0, 177.0], "includesElement__vdw_radius_mm3": [182.0, 204.0], "includesElement__vdw_radius_uff": [350.0, 385.1], "includesElement__abundance_sea": [857000.0, 28.0], "includesElement__c6_gb": [16.7, 47.9], "includesElement__covalent_radius_bragg": [65.0, 77.0], "includesElement__electronegativity_allen": [21.36, 15.05], "includesElement__en_allen": [21.36, 15.05], "includesElement__thermal_conductivity": [0.027, 1.59], "includesElement__vdw_radius_batsanov": [155.0, 170.0], "includesElement__c6": [15.6, 46.6], "includesElement__vdw_radius_dreiding": [340.46, 389.83], "includesElement__gas_basicity": [459.6], "includesElement__proton_affinity": [485.2], "includesElement__vdw_radius_bondi": [152.0, 170.0], "includesElement__vdw_radius_rt": [158.0, 177.0], "includesElement__metallic_radius_c12": [86.0], "formula": ["C4O8"], "spacegroup": ["205"], "thermalConductivity": [15.8106], "icsd": ["16428"], "band_gap": [6.6332], "density": [1.75979], "density_atomic": [13.84246], "deprecated": [false], "efermi": [-4.099971], "energy_above_hull": [0.0], "energy_per_atom": [-8.144358], "formation_energy_per_atom": [-1.766627], "homogeneous_poisson": [0.273], "is_gap_direct": [true], "is_magnetic": [false], "is_metal": [false], "is_stable": [true], "nelements": [2], "nsites": [12], "num_magnetic_sites": [0], "num_unique_magnetic_sites": [0], "theoretical": [false], "total_magnetization": [0.0], "total_magnetization_normalized_formula_units": [0.0], "total_magnetization_normalized_vol": [0.0], "uncorrected_energy_per_atom": [-8.595939], "universal_anisotropy": [0.024], "volume": [166.1095], "cbm": [2.4542], "e_electronic": [1.86512], "e_ionic": [0.2123756], "e_total": [2.077496], "equilibrium_reaction_energy_per_atom": [-1.766627], "n": [1.365694], "vbm": [-4.179]}