{"includesElement": ["", "Ni", "S"], "includesElement___series_id": [8, 1], "includesElement__abundance_crust": [84.0, 350.0], "includesElement__atomic_number": [28, 16], "includesElement__atomic_radius": [135.0, 100.0], "includesElement__atomic_radius_rahm": [229.0, 214.0], "includesElement__atomic_volume": [6.6, 15.5], "includesElement__atomic_weight": [58.6934, 32.06], "includesElement__covalent_radius_cordero": [124.0, 105.0], "includesElement__covalent_radius_pyykko": [110.0, 103.0], "includesElement__covalent_radius_pyykko_double": [101.0, 94.0], "includesElement__covalent_radius_pyykko_triple": [101.0, 95.0], "includesElement__density": [8.9, 2.07], "includesElement__dipole_polarizability": [49.0, 19.4], "includesElement__dipole_polarizability_unc": [3.0, 0.1], "includesElement__discovery_year": [1751], "includesElement__electron_affinity": [1.156, 2.077104], "includesElement__electronegativity_allred-rochow": [0.0003347107, 0.0005137148], "includesElement__electronegativity_cottrell-sutton": [0.1918806, 0.2300274], "includesElement__electronegativity_ghosh": [0.1472068, 0.23596], "includesElement__electronegativity_gordy": [0.03681818, 0.05291262], "includesElement__electronegativity_mulliken": [4.397939, 6.218557], "includesElement__electronegativity_nagle": [0.588755, 0.6762644], "includesElement__electronegativity_pauling": [1.91, 2.58], "includesElement__electronegativity_sanderson": [0.937704, 0.6397251], "includesElement__en_ghosh": [0.1472068, 0.23596], "includesElement__en_pauling": [1.91, 2.58], "includesElement__evaporation_heat": [378.6, 10.5], "includesElement__fusion_heat": [17.61, 1.23], "includesElement__glawe_number": [69, 96], "includesElement__group_id": [10, 16], "includesElement__heat_of_formation": [430.1, 277.17], "includesElement__is_radioactive": [false], "includesElement__lattice_constant": [3.52, 10.47], "includesElement__mendeleev_number": [67, 100], "includesElement__molar_heat_capacity": [26.07, 22.7], "includesElement__period": [4, 3], "includesElement__pettifor_number": [67, 94], "includesElement__specific_heat_capacity": [0.444, 0.708], "includesElement__vdw_radius": [197.0, 180.0], "includesElement__vdw_radius_alvarez": [240.0, 189.0], "includesElement__vdw_radius_mm3": [222.0, 215.0], "includesElement__vdw_radius_uff": [283.4, 403.5], "includesElement__abundance_sea": [0.00056, 905.0], "includesElement__atomic_weight_uncertainty": [0.0004], "includesElement__c6_gb": [393.0, 140.0], "includesElement__covalent_radius_bragg": [135.0, 102.0], "includesElement__electronegativity_allen": [11.13, 15.31], "includesElement__en_allen": [11.13, 15.31], "includesElement__metallic_radius": [115.0, 104.0], "includesElement__metallic_radius_c12": [124.0, 127.0], "includesElement__thermal_conductivity": [90.9, 0.27], "includesElement__vdw_radius_batsanov": [200.0, 180.0], "includesElement__c6": [373.0, 134.0], "includesElement__gas_basicity": [714.1, 640.2], "includesElement__proton_affinity": [737.0, 664.3], "includesElement__vdw_radius_dreiding": [403.0], "includesElement__vdw_radius_bondi": [180.0], "includesElement__vdw_radius_rt": [181.0], "formula": ["Ni6S8"], "spacegroup": ["227"], "thermalConductivity": [2.15776], "icsd": ["36271"], "band_gap": [0.0], "density": [4.887384], "density_atomic": [14.77182], "deprecated": [false], "efermi": [6.918351], "energy_above_hull": [0.0], "energy_per_atom": [-5.49995], "formation_energy_per_atom": [-0.6579717], "homogeneous_poisson": [0.332], "is_gap_direct": [false], "is_magnetic": [false], "is_metal": [true], "is_stable": [true], "nelements": [2], "nsites": [14], "num_magnetic_sites": [0], "num_unique_magnetic_sites": [0], "theoretical": [false], "total_magnetization": [0.0001155], "total_magnetization_normalized_formula_units": [5.775e-05], "total_magnetization_normalized_vol": [5.58496e-07], "uncorrected_energy_per_atom": [-10.18962], "universal_anisotropy": [0.001], "volume": [206.8054], "equilibrium_reaction_energy_per_atom": [-0.0575458]}