{"includesElement": ["", "Ho"], "includesElement___series_id": [9], "includesElement__abundance_crust": [1.3], "includesElement__atomic_number": [67], "includesElement__atomic_radius": [175.0], "includesElement__atomic_radius_rahm": [273.0], "includesElement__atomic_volume": [18.7], "includesElement__atomic_weight": [164.9303], "includesElement__covalent_radius_cordero": [192.0], "includesElement__covalent_radius_pyykko": [166.0], "includesElement__covalent_radius_pyykko_double": [133.0], "includesElement__density": [8.8], "includesElement__dipole_polarizability": [156.0], "includesElement__dipole_polarizability_unc": [10.0], "includesElement__discovery_year": [1878], "includesElement__electronegativity_allred-rochow": [0.0001034258], "includesElement__electronegativity_cottrell-sutton": [0.1310293], "includesElement__electronegativity_ghosh": [0.207795], "includesElement__electronegativity_gordy": [0.01716867], "includesElement__electronegativity_mulliken": [3.01075], "includesElement__electronegativity_nagle": [0.4367902], "includesElement__electronegativity_pauling": [1.23], "includesElement__electronegativity_sanderson": [0.5434919], "includesElement__en_ghosh": [0.207795], "includesElement__en_pauling": [1.23], "includesElement__evaporation_heat": [301.0], "includesElement__glawe_number": [23], "includesElement__heat_of_formation": [300.6], "includesElement__is_radioactive": [false], "includesElement__lattice_constant": [3.58], "includesElement__mendeleev_number": [33], "includesElement__molar_heat_capacity": [27.15], "includesElement__period": [6], "includesElement__pettifor_number": [24], "includesElement__specific_heat_capacity": [0.165], "includesElement__vdw_radius": [230.0], "includesElement__vdw_radius_alvarez": [281.0], "includesElement__vdw_radius_mm3": [267.0], "includesElement__vdw_radius_uff": [340.9], "includesElement__abundance_sea": [2.2e-07], "includesElement__atomic_weight_uncertainty": [2e-05], "includesElement__c6_gb": [2280.0], "includesElement__is_monoisotopic": [true], "formula": ["Ho2"], "spacegroup": ["194"], "thermalConductivity": [14.7772], "icsd": ["102660"], "band_gap": [0.0], "density": [8.731909], "density_atomic": [31.36465], "deprecated": [false], "efermi": [3.057353], "energy_above_hull": [0.0], "energy_per_atom": [-32.88134], "formation_energy_per_atom": [0.0], "has_reconstructed": [false], "homogeneous_poisson": [0.23], "is_gap_direct": [false], "is_magnetic": [false], "is_metal": [true], "is_stable": [true], "nelements": [1], "nsites": [2], "num_magnetic_sites": [0], "num_unique_magnetic_sites": [0], "shape_factor": [4.985488], "surface_anisotropy": [0.02624945], "theoretical": [false], "total_magnetization": [2.5e-06], "total_magnetization_normalized_formula_units": [1.25e-06], "total_magnetization_normalized_vol": [3.985379e-08], "uncorrected_energy_per_atom": [-32.88134], "universal_anisotropy": [0.011], "volume": [62.7293], "weighted_surface_energy": [1.014914], "weighted_surface_energy_EV_PER_ANG2": [0.06334594], "weighted_work_function": [2.913266], "equilibrium_reaction_energy_per_atom": [0.0]}