{"includesElement": ["", "N", "Mo"], "includesElement___series_id": [1, 8], "includesElement__abundance_crust": [19.0, 1.2], "includesElement__atomic_number": [7, 42], "includesElement__atomic_radius": [65.0, 145.0], "includesElement__atomic_radius_rahm": [179.0, 244.0], "includesElement__atomic_volume": [17.3, 9.4], "includesElement__atomic_weight": [14.007, 95.95], "includesElement__covalent_radius_cordero": [71.0, 154.0], "includesElement__covalent_radius_pyykko": [71.0, 138.0], "includesElement__covalent_radius_pyykko_double": [60.0, 121.0], "includesElement__covalent_radius_pyykko_triple": [54.0, 113.0], "includesElement__density": [0.001145, 10.2], "includesElement__dipole_polarizability": [7.4, 87.0], "includesElement__dipole_polarizability_unc": [0.2, 6.0], "includesElement__discovery_year": [1772, 1778], "includesElement__electron_affinity": [-1.4, 0.748], "includesElement__electronegativity_allred-rochow": [0.000773656, 0.0001549044], "includesElement__electronegativity_cottrell-sutton": [0.2343706, 0.1462081], "includesElement__electronegativity_ghosh": [0.26493, 0.1312672], "includesElement__electronegativity_gordy": [0.05492958, 0.02137681], "includesElement__electronegativity_mulliken": [6.567065, 3.920215], "includesElement__electronegativity_nagle": [0.8774979, 0.4100883], "includesElement__electronegativity_pauling": [3.04, 2.16], "includesElement__electronegativity_sanderson": [0.577482, 0.685295], "includesElement__en_ghosh": [0.26493, 0.1312672], "includesElement__en_pauling": [3.04, 2.16], "includesElement__glawe_number": [88, 56], "includesElement__group_id": [15, 6], "includesElement__heat_of_formation": [472.44, 658.98], "includesElement__is_radioactive": [false], "includesElement__lattice_constant": [4.039, 3.15], "includesElement__mendeleev_number": [93, 52], "includesElement__molar_heat_capacity": [29.124, 24.06], "includesElement__period": [2, 5], "includesElement__pettifor_number": [100, 55], "includesElement__specific_heat_capacity": [1.04, 0.251], "includesElement__vdw_radius": [155.0, 217.0], "includesElement__vdw_radius_alvarez": [166.0, 245.0], "includesElement__vdw_radius_mm3": [193.0, 239.0], "includesElement__vdw_radius_uff": [366.0, 305.2], "includesElement__abundance_sea": [0.5, 0.01], "includesElement__c6_gb": [25.7, 1030.0], "includesElement__covalent_radius_bragg": [65.0], "includesElement__electronegativity_allen": [18.13, 8.71], "includesElement__en_allen": [18.13, 8.71], "includesElement__metallic_radius_c12": [53.0, 139.0], "includesElement__thermal_conductivity": [0.026], "includesElement__vdw_radius_batsanov": [160.0, 210.0], "includesElement__c6": [24.2], "includesElement__vdw_radius_dreiding": [366.21], "includesElement__gas_basicity": [318.7], "includesElement__proton_affinity": [342.2], "includesElement__vdw_radius_bondi": [155.0], "includesElement__vdw_radius_rt": [164.0], "includesElement__evaporation_heat": [590.0], "includesElement__fusion_heat": [28.0], "includesElement__atomic_weight_uncertainty": [0.01], "includesElement__metallic_radius": [130.0], "formula": ["Mo1N1"], "spacegroup": ["216"], "thermalConductivity": [9.2544], "icsd": ["159438"], "band_gap": [0.0], "density": [7.158456], "density_atomic": [12.75211], "deprecated": [false], "efermi": [7.300998], "energy_above_hull": [0.324693], "energy_per_atom": [-9.813491], "formation_energy_per_atom": [-0.2215275], "homogeneous_poisson": [0.571], "is_gap_direct": [false], "is_magnetic": [true], "is_metal": [true], "is_stable": [false], "nelements": [2], "nsites": [2], "num_magnetic_sites": [1], "num_unique_magnetic_sites": [1], "theoretical": [true], "total_magnetization": [0.7642384], "total_magnetization_normalized_formula_units": [0.7642384], "total_magnetization_normalized_vol": [0.02996518], "uncorrected_energy_per_atom": [-9.632991], "universal_anisotropy": [-15.28], "volume": [25.50421]}