{"includesElement": ["", "Fe", "W"], "includesElement___series_id": [8], "includesElement__abundance_crust": [56300.0, 1.25], "includesElement__atomic_number": [26, 74], "includesElement__atomic_radius": [140.0, 135.0], "includesElement__atomic_radius_rahm": [237.0, 253.0], "includesElement__atomic_volume": [7.1, 9.53], "includesElement__atomic_weight": [55.845, 183.84], "includesElement__covalent_radius_cordero": [142.0, 162.0], "includesElement__covalent_radius_pyykko": [116.0, 137.0], "includesElement__covalent_radius_pyykko_double": [109.0, 120.0], "includesElement__covalent_radius_pyykko_triple": [102.0, 115.0], "includesElement__density": [7.87, 19.3], "includesElement__dipole_polarizability": [62.0, 68.0], "includesElement__dipole_polarizability_unc": [4.0, 15.0], "includesElement__electron_affinity": [0.151, 0.81626], "includesElement__electronegativity_allred-rochow": [0.0002786861, 0.0001838137], "includesElement__electronegativity_cottrell-sutton": [0.1797987, 0.1586899], "includesElement__electronegativity_ghosh": [0.1392532, 0.2390504], "includesElement__electronegativity_gordy": [0.03232759, 0.02518248], "includesElement__electronegativity_mulliken": [4.026734, 4.340145], "includesElement__electronegativity_nagle": [0.5053195, 0.4451921], "includesElement__electronegativity_pauling": [1.83, 1.7], "includesElement__electronegativity_sanderson": [0.748727, 1.019283], "includesElement__en_ghosh": [0.1392532, 0.2390504], "includesElement__en_pauling": [1.83, 1.7], "includesElement__evaporation_heat": [340.0, 824.0], "includesElement__fusion_heat": [13.8, 35.0], "includesElement__glawe_number": [71, 57], "includesElement__group_id": [8, 6], "includesElement__heat_of_formation": [415.5, 851.0], "includesElement__is_radioactive": [false], "includesElement__lattice_constant": [2.87, 3.16], "includesElement__mendeleev_number": [59, 53], "includesElement__molar_heat_capacity": [25.1, 24.27], "includesElement__period": [4, 6], "includesElement__pettifor_number": [61, 56], "includesElement__specific_heat_capacity": [0.449, 0.132], "includesElement__vdw_radius": [204.0, 218.0], "includesElement__vdw_radius_alvarez": [244.0, 257.0], "includesElement__vdw_radius_mm3": [223.0, 239.0], "includesElement__vdw_radius_uff": [291.2, 309.6], "includesElement__abundance_sea": [0.002, 0.0001], "includesElement__atomic_weight_uncertainty": [0.002, 0.01], "includesElement__c6_gb": [548.0, 757.0], "includesElement__covalent_radius_bragg": [140.0], "includesElement__electronegativity_allen": [10.64, 8.67], "includesElement__en_allen": [10.64, 8.67], "includesElement__metallic_radius": [117.0, 130.0], "includesElement__metallic_radius_c12": [126.0, 139.0], "includesElement__thermal_conductivity": [80.4, 173.0], "includesElement__vdw_radius_batsanov": [205.0, 210.0], "includesElement__c6": [482.0], "includesElement__gas_basicity": [731.1], "includesElement__proton_affinity": [754.0], "includesElement__discovery_year": [1783], "formula": ["Fe8W4"], "spacegroup": ["194"], "thermalConductivity": [3.29329], "icsd": ["155757"], "band_gap": [0.0], "density": [13.19317], "density_atomic": [12.39881], "deprecated": [false], "efermi": [6.552303], "energy_above_hull": [0.0], "energy_per_atom": [-9.989327], "formation_energy_per_atom": [-0.02326899], "homogeneous_poisson": [0.278], "is_gap_direct": [false], "is_magnetic": [true], "is_metal": [true], "is_stable": [true], "nelements": [2], "nsites": [12], "num_magnetic_sites": [12], "num_unique_magnetic_sites": [5], "theoretical": [false], "total_magnetization": [4.856047], "total_magnetization_normalized_formula_units": [1.214012], "total_magnetization_normalized_vol": [0.03263784], "uncorrected_energy_per_atom": [-26.53293], "universal_anisotropy": [0.161], "volume": [148.7858], "equilibrium_reaction_energy_per_atom": [-0.02326899]}