{"includesElement": ["", "O", "Co"], "includesElement___series_id": [1, 8], "includesElement__abundance_crust": [461000.0, 25.0], "includesElement__atomic_number": [8, 27], "includesElement__atomic_radius": [60.0, 135.0], "includesElement__atomic_radius_rahm": [171.0, 233.0], "includesElement__atomic_volume": [14.0, 6.7], "includesElement__atomic_weight": [15.999, 58.93319], "includesElement__covalent_radius_cordero": [66.0, 138.0], "includesElement__covalent_radius_pyykko": [63.0, 111.0], "includesElement__covalent_radius_pyykko_double": [57.0, 103.0], "includesElement__covalent_radius_pyykko_triple": [53.0, 96.0], "includesElement__density": [0.001308, 8.86], "includesElement__dipole_polarizability": [5.3, 55.0], "includesElement__dipole_polarizability_unc": [0.2, 4.0], "includesElement__discovery_year": [1774, 1739], "includesElement__electron_affinity": [1.461113, 0.6622565], "includesElement__electronegativity_allred-rochow": [0.001146384, 0.0003165327], "includesElement__electronegativity_cottrell-sutton": [0.2687419, 0.1874437], "includesElement__electronegativity_ghosh": [0.304575, 0.1432363], "includesElement__electronegativity_gordy": [0.07222222, 0.03513514], "includesElement__electronegativity_mulliken": [7.539584, 4.271633], "includesElement__electronegativity_nagle": [1.042218, 0.5469655], "includesElement__electronegativity_pauling": [3.44, 1.88], "includesElement__electronegativity_sanderson": [0.9416494, 0.8832424], "includesElement__en_ghosh": [0.304575, 0.1432363], "includesElement__en_pauling": [3.44, 1.88], "includesElement__glawe_number": [97, 70], "includesElement__group_id": [16, 9], "includesElement__heat_of_formation": [249.229, 426.7], "includesElement__is_radioactive": [false], "includesElement__lattice_constant": [6.83, 2.51], "includesElement__mendeleev_number": [99, 63], "includesElement__molar_heat_capacity": [29.378, 24.81], "includesElement__period": [2, 4], "includesElement__pettifor_number": [101, 64], "includesElement__specific_heat_capacity": [0.918, 0.421], "includesElement__vdw_radius": [152.0, 200.0], "includesElement__vdw_radius_alvarez": [150.0, 240.0], "includesElement__vdw_radius_mm3": [182.0, 223.0], "includesElement__vdw_radius_uff": [350.0, 287.2], "includesElement__abundance_sea": [857000.0, 2e-05], "includesElement__c6_gb": [16.7, 461.0], "includesElement__covalent_radius_bragg": [65.0, 137.0], "includesElement__electronegativity_allen": [21.36, 10.86], "includesElement__en_allen": [21.36, 10.86], "includesElement__thermal_conductivity": [0.027, 100.0], "includesElement__vdw_radius_batsanov": [155.0, 200.0], "includesElement__c6": [15.6, 408.0], "includesElement__vdw_radius_dreiding": [340.46], "includesElement__gas_basicity": [459.6, 719.8], "includesElement__proton_affinity": [485.2, 742.7], "includesElement__vdw_radius_bondi": [152.0], "includesElement__vdw_radius_rt": [158.0], "includesElement__evaporation_heat": [389.1], "includesElement__fusion_heat": [15.48], "includesElement__atomic_weight_uncertainty": [4e-06], "includesElement__metallic_radius": [116.0], "includesElement__metallic_radius_c12": [125.0], "includesElement__is_monoisotopic": [true], "formula": ["Co2O2"], "spacegroup": ["186"], "thermalConductivity": [4.85589], "icsd": ["43458"], "band_gap": [0.712], "density": [5.374821], "density_atomic": [11.57513], "deprecated": [false], "efermi": [2.70739], "energy_above_hull": [0.00041258], "energy_per_atom": [-7.312107], "formation_energy_per_atom": [-1.269267], "is_gap_direct": [true], "is_magnetic": [true], "is_metal": [false], "is_stable": [false], "nelements": [2], "nsites": [4], "num_magnetic_sites": [2], "num_unique_magnetic_sites": [2], "theoretical": [false], "total_magnetization": [3.55e-05], "total_magnetization_normalized_formula_units": [1.775e-05], "total_magnetization_normalized_vol": [7.667301e-07], "uncorrected_energy_per_atom": [-6.149607], "volume": [46.30052], "cbm": [3.41], "e_electronic": [5.452141], "e_ionic": [3.944366], "e_total": [9.396507], "n": [2.334982], "vbm": [2.698], "e_ij_max": [0.8544694]}