{"includesElement": ["", "Sb", "O"], "includesElement___series_id": [5, 1], "includesElement__abundance_crust": [0.2, 461000.0], "includesElement__atomic_number": [51, 8], "includesElement__atomic_radius": [145.0, 60.0], "includesElement__atomic_radius_rahm": [246.0, 171.0], "includesElement__atomic_volume": [18.4, 14.0], "includesElement__atomic_weight": [121.76, 15.999], "includesElement__covalent_radius_cordero": [139.0, 66.0], "includesElement__covalent_radius_pyykko": [140.0, 63.0], "includesElement__covalent_radius_pyykko_double": [133.0, 57.0], "includesElement__covalent_radius_pyykko_triple": [127.0, 53.0], "includesElement__density": [6.68, 0.001308], "includesElement__dipole_polarizability": [43.0, 5.3], "includesElement__dipole_polarizability_unc": [2.0, 0.2], "includesElement__electron_affinity": [1.046, 1.461113], "includesElement__electronegativity_allred-rochow": [0.0003214286, 0.001146384], "includesElement__electronegativity_cottrell-sutton": [0.212132, 0.2687419], "includesElement__electronegativity_ghosh": [0.1918774, 0.304575], "includesElement__electronegativity_gordy": [0.045, 0.07222222], "includesElement__electronegativity_mulliken": [4.827195, 7.539584], "includesElement__electronegativity_nagle": [0.4880907, 1.042218], "includesElement__electronegativity_pauling": [2.05, 3.44], "includesElement__electronegativity_sanderson": [0.7762722, 0.9416494], "includesElement__en_ghosh": [0.1918774, 0.304575], "includesElement__en_pauling": [2.05, 3.44], "includesElement__evaporation_heat": [195.2], "includesElement__fusion_heat": [20.08], "includesElement__glawe_number": [91, 97], "includesElement__group_id": [15, 16], "includesElement__heat_of_formation": [264.4, 249.229], "includesElement__is_radioactive": [false], "includesElement__lattice_constant": [4.51, 6.83], "includesElement__mendeleev_number": [96, 99], "includesElement__molar_heat_capacity": [25.23, 29.378], "includesElement__period": [5, 2], "includesElement__pettifor_number": [88, 101], "includesElement__specific_heat_capacity": [0.207, 0.918], "includesElement__vdw_radius": [206.0, 152.0], "includesElement__vdw_radius_alvarez": [247.0, 150.0], "includesElement__vdw_radius_mm3": [252.0, 182.0], "includesElement__vdw_radius_uff": [442.0, 350.0], "includesElement__abundance_sea": [0.00024, 857000.0], "includesElement__atomic_weight_uncertainty": [0.001], "includesElement__c6_gb": [504.0, 16.7], "includesElement__covalent_radius_bragg": [140.0, 65.0], "includesElement__electronegativity_allen": [11.74, 21.36], "includesElement__en_allen": [11.74, 21.36], "includesElement__metallic_radius": [139.0], "includesElement__metallic_radius_c12": [166.0], "includesElement__thermal_conductivity": [24.43, 0.027], "includesElement__vdw_radius_batsanov": [220.0, 155.0], "includesElement__c6": [492.0, 15.6], "includesElement__vdw_radius_dreiding": [435.0, 340.46], "includesElement__vdw_radius_truhlar": [206.0], "includesElement__discovery_year": [1774], "includesElement__gas_basicity": [459.6], "includesElement__proton_affinity": [485.2], "includesElement__vdw_radius_bondi": [152.0], "includesElement__vdw_radius_rt": [158.0], "formula": ["O12Sb8"], "spacegroup": ["227"], "thermalConductivity": [5.58758, 5.77343], "icsd": ["16851", "36145"], "band_gap": [3.3408], "density": [5.482309], "density_atomic": [17.65961], "deprecated": [false], "efermi": [2.986619], "energy_above_hull": [0.004735055], "energy_per_atom": [-15.30872], "formation_energy_per_atom": [-1.449805], "is_gap_direct": [false], "is_magnetic": [false], "is_metal": [false], "is_stable": [false], "nelements": [2], "nsites": [20], "num_magnetic_sites": [0], "num_unique_magnetic_sites": [0], "theoretical": [false], "total_magnetization": [0.0], "total_magnetization_normalized_formula_units": [0.0], "total_magnetization_normalized_vol": [0.0], "uncorrected_energy_per_atom": [-15.30872], "volume": [353.1923], "cbm": [6.2874], "e_electronic": [4.246695], "e_ionic": [4.169365], "e_total": [8.41606], "n": [2.060751], "vbm": [2.9466]}