{"includesElement": ["", "Al", "W"], "includesElement___series_id": [7, 8], "includesElement__abundance_crust": [82300.0, 1.25], "includesElement__atomic_number": [13, 74], "includesElement__atomic_radius": [125.0, 135.0], "includesElement__atomic_radius_rahm": [239.0, 253.0], "includesElement__atomic_volume": [10.0, 9.53], "includesElement__atomic_weight": [26.98154, 183.84], "includesElement__covalent_radius_cordero": [121.0, 162.0], "includesElement__covalent_radius_pyykko": [126.0, 137.0], "includesElement__covalent_radius_pyykko_double": [113.0, 120.0], "includesElement__covalent_radius_pyykko_triple": [111.0, 115.0], "includesElement__density": [2.7, 19.3], "includesElement__dipole_polarizability": [57.8, 68.0], "includesElement__dipole_polarizability_unc": [1.0, 15.0], "includesElement__discovery_year": [1825, 1783], "includesElement__electron_affinity": [0.43283, 0.81626], "includesElement__electronegativity_allred-rochow": [0.0002204586, 0.0001838137], "includesElement__electronegativity_cottrell-sutton": [0.1666667, 0.1586899], "includesElement__electronegativity_ghosh": [0.150078, 0.2390504], "includesElement__electronegativity_gordy": [0.02777778, 0.02518248], "includesElement__electronegativity_mulliken": [3.209299, 4.340145], "includesElement__electronegativity_nagle": [0.3730192, 0.4451921], "includesElement__electronegativity_pauling": [1.61, 1.7], "includesElement__electronegativity_sanderson": [0.2360927, 1.019283], "includesElement__en_ghosh": [0.150078, 0.2390504], "includesElement__en_pauling": [1.61, 1.7], "includesElement__evaporation_heat": [284.1, 824.0], "includesElement__fusion_heat": [10.75, 35.0], "includesElement__glawe_number": [78, 57], "includesElement__group_id": [13, 6], "includesElement__heat_of_formation": [330.9, 851.0], "includesElement__is_radioactive": [false], "includesElement__lattice_constant": [4.05, 3.16], "includesElement__mendeleev_number": [82, 53], "includesElement__molar_heat_capacity": [24.2, 24.27], "includesElement__period": [3, 6], "includesElement__pettifor_number": [80, 56], "includesElement__specific_heat_capacity": [0.897, 0.132], "includesElement__vdw_radius": [184.0, 218.0], "includesElement__vdw_radius_alvarez": [225.0, 257.0], "includesElement__vdw_radius_mm3": [236.0, 239.0], "includesElement__vdw_radius_uff": [449.9, 309.6], "includesElement__abundance_sea": [0.002, 0.0001], "includesElement__atomic_weight_uncertainty": [7e-07, 0.01], "includesElement__c6_gb": [520.0, 757.0], "includesElement__covalent_radius_bragg": [135.0], "includesElement__electronegativity_allen": [9.539, 8.67], "includesElement__en_allen": [9.539, 8.67], "includesElement__metallic_radius": [125.0, 130.0], "includesElement__metallic_radius_c12": [143.0, 139.0], "includesElement__thermal_conductivity": [237.0, 173.0], "includesElement__vdw_radius_batsanov": [210.0], "includesElement__c6": [528.0], "includesElement__is_monoisotopic": [true], "includesElement__vdw_radius_dreiding": [439.0], "includesElement__vdw_radius_truhlar": [184.0], "formula": ["Al10W2"], "spacegroup": ["182"], "thermalConductivity": [9.83043], "icsd": ["58206"], "band_gap": [0.0], "density": [5.850496], "density_atomic": [15.0783], "deprecated": [false], "efermi": [8.19327], "energy_above_hull": [0.0], "energy_per_atom": [-14.36055], "formation_energy_per_atom": [-0.1891669], "homogeneous_poisson": [0.181], "is_gap_direct": [false], "is_magnetic": [false], "is_metal": [true], "is_stable": [true], "nelements": [2], "nsites": [12], "num_magnetic_sites": [0], "num_unique_magnetic_sites": [0], "theoretical": [false], "total_magnetization": [0.0], "total_magnetization_normalized_formula_units": [0.0], "total_magnetization_normalized_vol": [0.0], "uncorrected_energy_per_atom": [-14.36055], "universal_anisotropy": [0.023], "volume": [180.9395], "equilibrium_reaction_energy_per_atom": [-0.1891669]}