{"includesElement": ["", "U"], "includesElement___series_id": [10], "includesElement__abundance_crust": [2.7], "includesElement__atomic_number": [92], "includesElement__atomic_radius": [175.0], "includesElement__atomic_radius_rahm": [283.0], "includesElement__atomic_volume": [12.5], "includesElement__atomic_weight": [238.0289], "includesElement__covalent_radius_cordero": [196.0], "includesElement__covalent_radius_pyykko": [170.0], "includesElement__covalent_radius_pyykko_double": [134.0], "includesElement__covalent_radius_pyykko_triple": [118.0], "includesElement__density": [19.1], "includesElement__dipole_polarizability": [129.0], "includesElement__dipole_polarizability_unc": [17.0], "includesElement__discovery_year": [1789], "includesElement__electronegativity_allred-rochow": [0.0001038062], "includesElement__electronegativity_cottrell-sutton": [0.1328422], "includesElement__electronegativity_ghosh": [0.13207], "includesElement__electronegativity_gordy": [0.01764706], "includesElement__electronegativity_mulliken": [3.097025], "includesElement__electronegativity_nagle": [0.3596283], "includesElement__electronegativity_pauling": [1.7], "includesElement__electronegativity_sanderson": [0.618118], "includesElement__en_ghosh": [0.13207], "includesElement__en_pauling": [1.7], "includesElement__evaporation_heat": [417.0], "includesElement__fusion_heat": [12.6], "includesElement__glawe_number": [36], "includesElement__heat_of_formation": [533.0], "includesElement__is_radioactive": [true], "includesElement__lattice_constant": [2.85], "includesElement__mendeleev_number": [20], "includesElement__molar_heat_capacity": [27.665], "includesElement__period": [7], "includesElement__pettifor_number": [45], "includesElement__specific_heat_capacity": [0.116], "includesElement__vdw_radius": [241.0], "includesElement__vdw_radius_alvarez": [271.0], "includesElement__vdw_radius_mm3": [252.0], "includesElement__vdw_radius_uff": [339.5], "includesElement__abundance_sea": [0.0032], "includesElement__atomic_weight_uncertainty": [3e-05], "includesElement__thermal_conductivity": [27.5], "includesElement__vdw_radius_batsanov": [230.0], "includesElement__gas_basicity": [973.2], "includesElement__proton_affinity": [995.2], "formula": ["U2"], "spacegroup": ["63"], "thermalConductivity": [6.99915], "icsd": ["106204"], "band_gap": [0.0], "density": [20.11372], "density_atomic": [19.65108], "deprecated": [false], "efermi": [15.18229], "energy_above_hull": [0.0], "energy_per_atom": [-79.94204], "formation_energy_per_atom": [0.0], "homogeneous_poisson": [0.194], "is_gap_direct": [false], "is_magnetic": [false], "is_metal": [true], "is_stable": [true], "nelements": [1], "nsites": [2], "num_magnetic_sites": [0], "num_unique_magnetic_sites": [0], "theoretical": [false], "total_magnetization": [0.0], "total_magnetization_normalized_formula_units": [0.0], "total_magnetization_normalized_vol": [0.0], "uncorrected_energy_per_atom": [-79.94204], "universal_anisotropy": [0.651], "volume": [39.30215], "equilibrium_reaction_energy_per_atom": [0.0]}