{"includesElement": ["", "Si", "S"], "includesElement___series_id": [5, 1], "includesElement__abundance_crust": [282000.0, 350.0], "includesElement__atomic_number": [14, 16], "includesElement__atomic_radius": [110.0, 100.0], "includesElement__atomic_radius_rahm": [232.0, 214.0], "includesElement__atomic_volume": [12.1, 15.5], "includesElement__atomic_weight": [28.085, 32.06], "includesElement__covalent_radius_cordero": [111.0, 105.0], "includesElement__covalent_radius_pyykko": [116.0, 103.0], "includesElement__covalent_radius_pyykko_double": [107.0, 94.0], "includesElement__covalent_radius_pyykko_triple": [102.0, 95.0], "includesElement__density": [2.3296, 2.07], "includesElement__dipole_polarizability": [37.3, 19.4], "includesElement__dipole_polarizability_unc": [0.7, 0.1], "includesElement__discovery_year": [1824], "includesElement__electron_affinity": [1.389521, 2.077104], "includesElement__electronegativity_allred-rochow": [0.0003084126, 0.0005137148], "includesElement__electronegativity_cottrell-sutton": [0.1891451, 0.2300274], "includesElement__electronegativity_ghosh": [0.178503, 0.23596], "includesElement__electronegativity_gordy": [0.03577586, 0.05291262], "includesElement__electronegativity_mulliken": [4.770602, 6.218557], "includesElement__electronegativity_nagle": [0.4750986, 0.6762644], "includesElement__electronegativity_pauling": [1.9, 2.58], "includesElement__electronegativity_sanderson": [0.3468158, 0.6397251], "includesElement__en_ghosh": [0.178503, 0.23596], "includesElement__en_pauling": [1.9, 2.58], "includesElement__evaporation_heat": [383.0, 10.5], "includesElement__fusion_heat": [50.6, 1.23], "includesElement__glawe_number": [85, 96], "includesElement__group_id": [14, 16], "includesElement__heat_of_formation": [450.0, 277.17], "includesElement__is_radioactive": [false], "includesElement__lattice_constant": [5.43, 10.47], "includesElement__mendeleev_number": [88, 100], "includesElement__molar_heat_capacity": [19.99, 22.7], "includesElement__period": [3], "includesElement__pettifor_number": [85, 94], "includesElement__specific_heat_capacity": [0.712, 0.708], "includesElement__vdw_radius": [210.0, 180.0], "includesElement__vdw_radius_alvarez": [219.0, 189.0], "includesElement__vdw_radius_mm3": [229.0, 215.0], "includesElement__vdw_radius_uff": [429.5, 403.5], "includesElement__abundance_sea": [2.2, 905.0], "includesElement__c6_gb": [308.0, 140.0], "includesElement__covalent_radius_bragg": [117.0, 102.0], "includesElement__electronegativity_allen": [11.33, 15.31], "includesElement__en_allen": [11.33, 15.31], "includesElement__metallic_radius": [117.0, 104.0], "includesElement__metallic_radius_c12": [138.0, 127.0], "includesElement__thermal_conductivity": [149.0, 0.27], "includesElement__vdw_radius_batsanov": [210.0, 180.0], "includesElement__c6": [305.0, 134.0], "includesElement__vdw_radius_dreiding": [427.0, 403.0], "includesElement__gas_basicity": [814.1, 640.2], "includesElement__proton_affinity": [837.0, 664.3], "includesElement__vdw_radius_bondi": [210.0, 180.0], "includesElement__vdw_radius_rt": [181.0], "formula": ["S4Si2"], "spacegroup": ["122"], "thermalConductivity": [10.7017], "icsd": ["16952"], "band_gap": [3.2415], "density": [2.284896], "density_atomic": [22.33908], "deprecated": [false], "efermi": [2.515274], "energy_above_hull": [0.01953703], "energy_per_atom": [-9.010876], "formation_energy_per_atom": [-0.7296216], "homogeneous_poisson": [0.221], "is_gap_direct": [false], "is_magnetic": [false], "is_metal": [false], "is_stable": [false], "nelements": [2], "nsites": [6], "num_magnetic_sites": [0], "num_unique_magnetic_sites": [0], "theoretical": [false], "total_magnetization": [0.0], "total_magnetization_normalized_formula_units": [0.0], "total_magnetization_normalized_vol": [0.0], "uncorrected_energy_per_atom": [-9.010876], "universal_anisotropy": [1.646], "volume": [134.0345], "cbm": [5.7231], "e_electronic": [5.057939], "e_ionic": [2.357737], "e_total": [7.415675], "n": [2.248986], "vbm": [2.4816], "e_ij_max": [0.13295]}