{"includesElement": ["", "Ca"], "includesElement___series_id": [4], "includesElement__abundance_crust": [41500.0], "includesElement__atomic_number": [20], "includesElement__atomic_radius": [180.0], "includesElement__atomic_radius_rahm": [270.0], "includesElement__atomic_volume": [29.9], "includesElement__atomic_weight": [40.078], "includesElement__covalent_radius_cordero": [176.0], "includesElement__covalent_radius_pyykko": [171.0], "includesElement__covalent_radius_pyykko_double": [147.0], "includesElement__covalent_radius_pyykko_triple": [133.0], "includesElement__density": [1.54], "includesElement__dipole_polarizability": [160.8], "includesElement__dipole_polarizability_unc": [4.0], "includesElement__discovery_year": [1808], "includesElement__electron_affinity": [0.02455], "includesElement__electronegativity_allred-rochow": [9.746589e-05], "includesElement__electronegativity_cottrell-sutton": [0.1290994], "includesElement__electronegativity_ghosh": [0.1154119], "includesElement__electronegativity_gordy": [0.01666667], "includesElement__electronegativity_mulliken": [3.068853], "includesElement__electronegativity_nagle": [0.2316939], "includesElement__electronegativity_pauling": [1.0], "includesElement__electronegativity_sanderson": [0.1901577], "includesElement__en_ghosh": [0.1154119], "includesElement__en_pauling": [1.0], "includesElement__evaporation_heat": [153.6], "includesElement__fusion_heat": [9.2], "includesElement__glawe_number": [16], "includesElement__group_id": [2], "includesElement__heat_of_formation": [177.8], "includesElement__is_radioactive": [false], "includesElement__lattice_constant": [5.58], "includesElement__mendeleev_number": [7], "includesElement__molar_heat_capacity": [25.929], "includesElement__period": [4], "includesElement__pettifor_number": [16], "includesElement__specific_heat_capacity": [0.647], "includesElement__vdw_radius": [231.0], "includesElement__vdw_radius_alvarez": [262.0], "includesElement__vdw_radius_mm3": [281.0], "includesElement__vdw_radius_uff": [339.9], "includesElement__abundance_sea": [412.0], "includesElement__atomic_weight_uncertainty": [0.004], "includesElement__c6_gb": [2230.0], "includesElement__covalent_radius_bragg": [170.0], "includesElement__electronegativity_allen": [6.113], "includesElement__en_allen": [6.113], "includesElement__metallic_radius": [174.0], "includesElement__metallic_radius_c12": [197.0], "includesElement__vdw_radius_batsanov": [240.0], "includesElement__c6": [2163.0], "includesElement__vdw_radius_truhlar": [231.0], "formula": ["Ca1"], "spacegroup": ["225"], "thermalConductivity": [9.44272], "icsd": ["181067"], "band_gap": [0.0], "density": [1.534816], "density_atomic": [43.36096], "deprecated": [false], "efermi": [2.009737], "energy_above_hull": [0.0], "energy_per_atom": [-7.038294], "formation_energy_per_atom": [0.0], "has_reconstructed": [false], "homogeneous_poisson": [0.31], "is_gap_direct": [false], "is_magnetic": [false], "is_metal": [true], "is_stable": [true], "nelements": [1], "nsites": [1], "num_magnetic_sites": [0], "num_unique_magnetic_sites": [0], "shape_factor": [5.179177], "surface_anisotropy": [0.03846937], "theoretical": [false], "total_magnetization": [2.6e-06], "total_magnetization_normalized_formula_units": [2.6e-06], "total_magnetization_normalized_vol": [5.996177e-08], "uncorrected_energy_per_atom": [-7.038294], "universal_anisotropy": [2.479], "volume": [43.36096], "weighted_surface_energy": [0.465376], "weighted_surface_energy_EV_PER_ANG2": [0.02904649], "weighted_work_function": [2.774143], "equilibrium_reaction_energy_per_atom": [0.0]}