{"includesElement": ["", "Na", "N"], "includesElement___series_id": [3, 1], "includesElement__abundance_crust": [23600.0, 19.0], "includesElement__atomic_number": [11, 7], "includesElement__atomic_radius": [180.0, 65.0], "includesElement__atomic_radius_rahm": [225.0, 179.0], "includesElement__atomic_volume": [23.7, 17.3], "includesElement__atomic_weight": [22.98977, 14.007], "includesElement__covalent_radius_cordero": [166.0, 71.0], "includesElement__covalent_radius_pyykko": [155.0, 71.0], "includesElement__covalent_radius_pyykko_double": [160.0, 60.0], "includesElement__density": [0.97, 0.001145], "includesElement__dipole_polarizability": [162.7, 7.4], "includesElement__dipole_polarizability_unc": [0.5, 0.2], "includesElement__discovery_year": [1807, 1772], "includesElement__electron_affinity": [0.547926, -1.4], "includesElement__electronegativity_allred-rochow": [9.157128e-05, 0.000773656], "includesElement__electronegativity_cottrell-sutton": [0.1191367, 0.2343706], "includesElement__electronegativity_ghosh": [0.093214, 0.26493], "includesElement__electronegativity_gordy": [0.01419355, 0.05492958], "includesElement__electronegativity_mulliken": [2.843501, 6.567065], "includesElement__electronegativity_nagle": [0.1831769, 0.8774979], "includesElement__electronegativity_pauling": [0.93, 3.04], "includesElement__electronegativity_sanderson": [0.09459764, 0.577482], "includesElement__en_ghosh": [0.093214, 0.26493], "includesElement__en_pauling": [0.93, 3.04], "includesElement__evaporation_heat": [97.9], "includesElement__fusion_heat": [2.64], "includesElement__glawe_number": [11, 88], "includesElement__group_id": [1, 15], "includesElement__heat_of_formation": [107.5, 472.44], "includesElement__is_radioactive": [false], "includesElement__lattice_constant": [4.23, 4.039], "includesElement__mendeleev_number": [2, 93], "includesElement__molar_heat_capacity": [28.23, 29.124], "includesElement__period": [3, 2], "includesElement__pettifor_number": [11, 100], "includesElement__specific_heat_capacity": [1.228, 1.04], "includesElement__vdw_radius": [227.0, 155.0], "includesElement__vdw_radius_alvarez": [250.0, 166.0], "includesElement__vdw_radius_mm3": [270.0, 193.0], "includesElement__vdw_radius_uff": [298.3, 366.0], "includesElement__abundance_sea": [10800.0, 0.5], "includesElement__atomic_weight_uncertainty": [2e-08], "includesElement__c6_gb": [1570.0, 25.7], "includesElement__covalent_radius_bragg": [177.0, 65.0], "includesElement__electronegativity_allen": [5.14, 18.13], "includesElement__en_allen": [5.14, 18.13], "includesElement__metallic_radius": [157.0], "includesElement__metallic_radius_c12": [190.0, 53.0], "includesElement__thermal_conductivity": [142.0, 0.026], "includesElement__vdw_radius_batsanov": [240.0, 160.0], "includesElement__c6": [1518.0, 24.2], "includesElement__is_monoisotopic": [true], "includesElement__vdw_radius_bondi": [227.0, 155.0], "includesElement__covalent_radius_pyykko_triple": [54.0], "includesElement__vdw_radius_dreiding": [366.21], "includesElement__gas_basicity": [318.7], "includesElement__proton_affinity": [342.2], "includesElement__vdw_radius_rt": [164.0], "formula": ["N1Na3"], "spacegroup": ["221"], "thermalConductivity": [2.02204], "icsd": ["421111"], "band_gap": [0.0], "density": [1.288932], "density_atomic": [26.72463], "deprecated": [false], "efermi": [-0.2246421], "energy_above_hull": [0.2709916], "energy_per_atom": [-4.739503], "formation_energy_per_atom": [0.2158201], "homogeneous_poisson": [0.265], "is_gap_direct": [false], "is_magnetic": [false], "is_metal": [true], "is_stable": [false], "nelements": [2], "nsites": [4], "num_magnetic_sites": [0], "num_unique_magnetic_sites": [0], "theoretical": [false], "total_magnetization": [4.3e-06], "total_magnetization_normalized_formula_units": [4.3e-06], "total_magnetization_normalized_vol": [4.022507e-08], "uncorrected_energy_per_atom": [-2.838636], "universal_anisotropy": [2.155], "volume": [106.8985]}