{"includesElement": ["", "Se", "Fe"], "includesElement___series_id": [1, 8], "includesElement__abundance_crust": [0.05, 56300.0], "includesElement__atomic_number": [34, 26], "includesElement__atomic_radius": [115.0, 140.0], "includesElement__atomic_radius_rahm": [224.0, 237.0], "includesElement__atomic_volume": [16.5, 7.1], "includesElement__atomic_weight": [78.971, 55.845], "includesElement__covalent_radius_cordero": [120.0, 142.0], "includesElement__covalent_radius_pyykko": [116.0], "includesElement__covalent_radius_pyykko_double": [107.0, 109.0], "includesElement__covalent_radius_pyykko_triple": [107.0, 102.0], "includesElement__density": [4.809, 7.87], "includesElement__dipole_polarizability": [28.9, 62.0], "includesElement__dipole_polarizability_unc": [1.0, 4.0], "includesElement__discovery_year": [1818], "includesElement__electron_affinity": [2.02067, 0.151], "includesElement__electronegativity_allred-rochow": [0.0005164982, 0.0002786861], "includesElement__electronegativity_cottrell-sutton": [0.2447729, 0.1797987], "includesElement__electronegativity_ghosh": [0.2240328, 0.1392532], "includesElement__electronegativity_gordy": [0.05991379, 0.03232759], "includesElement__electronegativity_mulliken": [5.886531, 4.026734], "includesElement__electronegativity_nagle": [0.592131, 0.5053195], "includesElement__electronegativity_pauling": [2.55, 1.83], "includesElement__electronegativity_sanderson": [0.9659121, 0.748727], "includesElement__en_ghosh": [0.2240328, 0.1392532], "includesElement__en_pauling": [2.55, 1.83], "includesElement__evaporation_heat": [59.7, 340.0], "includesElement__fusion_heat": [5.23, 13.8], "includesElement__glawe_number": [95, 71], "includesElement__group_id": [16, 8], "includesElement__heat_of_formation": [227.2, 415.5], "includesElement__is_radioactive": [false], "includesElement__lattice_constant": [4.36, 2.87], "includesElement__mendeleev_number": [101, 59], "includesElement__molar_heat_capacity": [25.363, 25.1], "includesElement__period": [4], "includesElement__pettifor_number": [93, 61], "includesElement__specific_heat_capacity": [0.321, 0.449], "includesElement__vdw_radius": [190.0, 204.0], "includesElement__vdw_radius_alvarez": [182.0, 244.0], "includesElement__vdw_radius_mm3": [229.0, 223.0], "includesElement__vdw_radius_uff": [420.5, 291.2], "includesElement__abundance_sea": [0.0002, 0.002], "includesElement__atomic_weight_uncertainty": [0.008, 0.002], "includesElement__c6_gb": [233.0, 548.0], "includesElement__covalent_radius_bragg": [117.0, 140.0], "includesElement__electronegativity_allen": [14.34, 10.64], "includesElement__en_allen": [14.34, 10.64], "includesElement__metallic_radius": [117.0], "includesElement__metallic_radius_c12": [140.0, 126.0], "includesElement__thermal_conductivity": [0.52, 80.4], "includesElement__vdw_radius_batsanov": [190.0, 205.0], "includesElement__c6": [210.0, 482.0], "includesElement__vdw_radius_dreiding": [403.0], "includesElement__vdw_radius_bondi": [190.0], "includesElement__gas_basicity": [731.1], "includesElement__proton_affinity": [754.0], "formula": ["Fe2Se4"], "spacegroup": ["58"], "thermalConductivity": [8.67444], "icsd": ["42041"], "band_gap": [0.3741], "density": [7.205959], "density_atomic": [16.41998], "deprecated": [false], "efermi": [5.971093], "energy_above_hull": [0.0], "energy_per_atom": [-5.823665], "formation_energy_per_atom": [-0.669717], "homogeneous_poisson": [0.205], "is_gap_direct": [false], "is_magnetic": [false], "is_metal": [false], "is_stable": [true], "nelements": [2], "nsites": [6], "num_magnetic_sites": [0], "num_unique_magnetic_sites": [0], "theoretical": [false], "total_magnetization": [0.0], "total_magnetization_normalized_formula_units": [0.0], "total_magnetization_normalized_vol": [0.0], "uncorrected_energy_per_atom": [-14.64443], "universal_anisotropy": [0.285], "volume": [98.51988], "cbm": [6.2588], "e_electronic": [26.70104], "e_ionic": [10.13336], "e_total": [36.8344], "equilibrium_reaction_energy_per_atom": [-0.3311045], "n": [5.167305], "vbm": [5.8847]}