{"includesElement": ["", "Cs", "C"], "includesElement___series_id": [3, 1], "includesElement__abundance_crust": [3.0, 200.0], "includesElement__atomic_number": [55, 6], "includesElement__atomic_radius": [260.0, 70.0], "includesElement__atomic_radius_rahm": [249.0, 190.0], "includesElement__atomic_volume": [70.0, 5.3], "includesElement__atomic_weight": [132.9055, 12.011], "includesElement__covalent_radius_cordero": [244.0, 73.0], "includesElement__covalent_radius_pyykko": [232.0, 75.0], "includesElement__covalent_radius_pyykko_double": [209.0, 67.0], "includesElement__density": [1.873, 2.2], "includesElement__dipole_polarizability": [400.9, 11.3], "includesElement__dipole_polarizability_unc": [0.7, 0.2], "includesElement__discovery_year": [1860], "includesElement__electron_affinity": [0.471626, 1.262119], "includesElement__electronegativity_allred-rochow": [4.087396e-05, 0.0005777778], "includesElement__electronegativity_cottrell-sutton": [0.09737946, 0.2081666], "includesElement__electronegativity_ghosh": [0.1542125, 0.224776], "includesElement__electronegativity_gordy": [0.009482759, 0.04333333], "includesElement__electronegativity_mulliken": [2.182766, 6.261208], "includesElement__electronegativity_nagle": [0.1356192, 0.7073926], "includesElement__electronegativity_pauling": [0.79, 2.55], "includesElement__electronegativity_sanderson": [0.1814531, 0.427525], "includesElement__en_ghosh": [0.1542125, 0.224776], "includesElement__en_pauling": [0.79, 2.55], "includesElement__evaporation_heat": [68.3], "includesElement__fusion_heat": [2.09], "includesElement__glawe_number": [8, 87], "includesElement__group_id": [1, 14], "includesElement__heat_of_formation": [76.5, 716.87], "includesElement__is_radioactive": [false], "includesElement__lattice_constant": [6.05, 3.57], "includesElement__mendeleev_number": [5, 87], "includesElement__molar_heat_capacity": [32.21, 8.517], "includesElement__period": [6, 2], "includesElement__pettifor_number": [8, 95], "includesElement__specific_heat_capacity": [0.242, 0.709], "includesElement__vdw_radius": [343.0, 170.0], "includesElement__vdw_radius_alvarez": [348.0, 177.0], "includesElement__vdw_radius_mm3": [344.0, 204.0], "includesElement__vdw_radius_uff": [451.7, 385.1], "includesElement__abundance_sea": [0.0003, 28.0], "includesElement__atomic_weight_uncertainty": [6e-08], "includesElement__c6_gb": [6660.0, 47.9], "includesElement__covalent_radius_bragg": [237.0, 77.0], "includesElement__electronegativity_allen": [3.898, 15.05], "includesElement__en_allen": [3.898, 15.05], "includesElement__metallic_radius": [235.0], "includesElement__metallic_radius_c12": [267.0, 86.0], "includesElement__thermal_conductivity": [35.9, 1.59], "includesElement__vdw_radius_batsanov": [300.0, 170.0], "includesElement__is_monoisotopic": [true], "includesElement__vdw_radius_truhlar": [343.0], "includesElement__covalent_radius_pyykko_triple": [60.0], "includesElement__c6": [46.6], "includesElement__vdw_radius_dreiding": [389.83], "includesElement__vdw_radius_bondi": [170.0], "includesElement__vdw_radius_rt": [177.0], "formula": ["C8Cs1"], "spacegroup": ["191"], "thermalConductivity": [28.1623], "icsd": ["74641"], "band_gap": [0.0], "density": [2.966221], "density_atomic": [14.24366], "deprecated": [false], "efermi": [4.318197], "energy_above_hull": [0.0], "energy_per_atom": [-8.346865], "formation_energy_per_atom": [-0.04374772], "is_gap_direct": [false], "is_magnetic": [false], "is_metal": [true], "is_stable": [true], "nelements": [2], "nsites": [27], "num_magnetic_sites": [0], "num_unique_magnetic_sites": [0], "theoretical": [false], "total_magnetization": [0.0037276], "total_magnetization_normalized_formula_units": [0.001242533], "total_magnetization_normalized_vol": [9.692681e-06], "uncorrected_energy_per_atom": [-8.346865], "volume": [384.5788], "equilibrium_reaction_energy_per_atom": [-0.04374772]}