{"includesElement": ["", "Se"], "includesElement___series_id": [1], "includesElement__abundance_crust": [0.05], "includesElement__atomic_number": [34], "includesElement__atomic_radius": [115.0], "includesElement__atomic_radius_rahm": [224.0], "includesElement__atomic_volume": [16.5], "includesElement__atomic_weight": [78.971], "includesElement__covalent_radius_cordero": [120.0], "includesElement__covalent_radius_pyykko": [116.0], "includesElement__covalent_radius_pyykko_double": [107.0], "includesElement__covalent_radius_pyykko_triple": [107.0], "includesElement__density": [4.809], "includesElement__dipole_polarizability": [28.9], "includesElement__dipole_polarizability_unc": [1.0], "includesElement__discovery_year": [1818], "includesElement__electron_affinity": [2.02067], "includesElement__electronegativity_allred-rochow": [0.0005164982], "includesElement__electronegativity_cottrell-sutton": [0.2447729], "includesElement__electronegativity_ghosh": [0.2240328], "includesElement__electronegativity_gordy": [0.05991379], "includesElement__electronegativity_mulliken": [5.886531], "includesElement__electronegativity_nagle": [0.592131], "includesElement__electronegativity_pauling": [2.55], "includesElement__electronegativity_sanderson": [0.9659121], "includesElement__en_ghosh": [0.2240328], "includesElement__en_pauling": [2.55], "includesElement__evaporation_heat": [59.7], "includesElement__fusion_heat": [5.23], "includesElement__glawe_number": [95], "includesElement__group_id": [16], "includesElement__heat_of_formation": [227.2], "includesElement__is_radioactive": [false], "includesElement__lattice_constant": [4.36], "includesElement__mendeleev_number": [101], "includesElement__molar_heat_capacity": [25.363], "includesElement__period": [4], "includesElement__pettifor_number": [93], "includesElement__specific_heat_capacity": [0.321], "includesElement__vdw_radius": [190.0], "includesElement__vdw_radius_alvarez": [182.0], "includesElement__vdw_radius_mm3": [229.0], "includesElement__vdw_radius_uff": [420.5], "includesElement__abundance_sea": [0.0002], "includesElement__atomic_weight_uncertainty": [0.008], "includesElement__c6_gb": [233.0], "includesElement__covalent_radius_bragg": [117.0], "includesElement__electronegativity_allen": [14.34], "includesElement__en_allen": [14.34], "includesElement__metallic_radius": [117.0], "includesElement__metallic_radius_c12": [140.0], "includesElement__thermal_conductivity": [0.52], "includesElement__vdw_radius_batsanov": [190.0], "includesElement__c6": [210.0], "includesElement__vdw_radius_dreiding": [403.0], "includesElement__vdw_radius_bondi": [190.0], "formula": ["Se6"], "spacegroup": ["227"], "thermalConductivity": [0.0931019], "icsd": ["150731"], "band_gap": [0.0], "density": [4.294078], "density_atomic": [30.53418], "deprecated": [false], "efermi": [1.778944], "energy_above_hull": [0.5141207], "energy_per_atom": [-13.79744], "formation_energy_per_atom": [0.5141207], "homogeneous_poisson": [5.452], "is_gap_direct": [false], "is_magnetic": [false], "is_metal": [true], "is_stable": [false], "nelements": [1], "nsites": [2], "num_magnetic_sites": [0], "num_unique_magnetic_sites": [0], "theoretical": [false], "total_magnetization": [7e-07], "total_magnetization_normalized_formula_units": [3.5e-07], "total_magnetization_normalized_vol": [1.146256e-08], "uncorrected_energy_per_atom": [-2.981791], "universal_anisotropy": [37.544], "volume": [61.06836]}