{"includesElement": ["", "Hf", "Mo"], "includesElement___series_id": [8], "includesElement__abundance_crust": [3.0, 1.2], "includesElement__atomic_number": [72, 42], "includesElement__atomic_radius": [155.0, 145.0], "includesElement__atomic_radius_rahm": [264.0, 244.0], "includesElement__atomic_volume": [13.6, 9.4], "includesElement__atomic_weight": [178.49, 95.95], "includesElement__covalent_radius_cordero": [175.0, 154.0], "includesElement__covalent_radius_pyykko": [152.0, 138.0], "includesElement__covalent_radius_pyykko_double": [128.0, 121.0], "includesElement__covalent_radius_pyykko_triple": [122.0, 113.0], "includesElement__density": [13.3, 10.2], "includesElement__dipole_polarizability": [103.0, 87.0], "includesElement__dipole_polarizability_unc": [6.0], "includesElement__discovery_year": [1923, 1778], "includesElement__electron_affinity": [0.014, 0.748], "includesElement__electronegativity_allred-rochow": [0.00013634, 0.0001549044], "includesElement__electronegativity_cottrell-sutton": [0.1439572, 0.1462081], "includesElement__electronegativity_ghosh": [0.229987, 0.1312672], "includesElement__electronegativity_gordy": [0.02072368, 0.02137681], "includesElement__electronegativity_mulliken": [3.419535, 3.920215], "includesElement__electronegativity_nagle": [0.3386421, 0.4100883], "includesElement__electronegativity_pauling": [1.3, 2.16], "includesElement__electronegativity_sanderson": [0.7352125, 0.685295], "includesElement__en_ghosh": [0.229987, 0.1312672], "includesElement__en_pauling": [1.3, 2.16], "includesElement__evaporation_heat": [575.0, 590.0], "includesElement__fusion_heat": [25.1, 28.0], "includesElement__glawe_number": [50, 56], "includesElement__group_id": [4, 6], "includesElement__heat_of_formation": [618.4, 658.98], "includesElement__is_radioactive": [false], "includesElement__lattice_constant": [3.2, 3.15], "includesElement__mendeleev_number": [45, 52], "includesElement__molar_heat_capacity": [25.73, 24.06], "includesElement__period": [6, 5], "includesElement__pettifor_number": [50, 55], "includesElement__specific_heat_capacity": [0.144, 0.251], "includesElement__vdw_radius": [223.0, 217.0], "includesElement__vdw_radius_alvarez": [263.0, 245.0], "includesElement__vdw_radius_mm3": [253.0, 239.0], "includesElement__vdw_radius_uff": [314.1, 305.2], "includesElement__abundance_sea": [7e-06, 0.01], "includesElement__atomic_weight_uncertainty": [0.02, 0.01], "includesElement__c6_gb": [1040.0, 1030.0], "includesElement__electronegativity_allen": [6.83, 8.71], "includesElement__en_allen": [6.83, 8.71], "includesElement__metallic_radius": [144.0, 130.0], "includesElement__metallic_radius_c12": [159.0, 139.0], "includesElement__thermal_conductivity": [23.0], "includesElement__vdw_radius_batsanov": [225.0, 210.0], "formula": ["Hf2Mo4"], "spacegroup": ["227"], "thermalConductivity": [7.9128], "icsd": ["104216"], "band_gap": [0.0], "density": [11.42156], "density_atomic": [17.94891], "deprecated": [false], "efermi": [6.586505], "energy_above_hull": [0.0], "energy_per_atom": [-32.60514], "formation_energy_per_atom": [-0.1733527], "homogeneous_poisson": [-1.0], "is_gap_direct": [false], "is_magnetic": [false], "is_metal": [true], "is_stable": [true], "nelements": [2], "nsites": [6], "num_magnetic_sites": [0], "num_unique_magnetic_sites": [0], "theoretical": [false], "total_magnetization": [2e-07], "total_magnetization_normalized_formula_units": [1e-07], "total_magnetization_normalized_vol": [1.857123e-09], "uncorrected_energy_per_atom": [-32.60514], "universal_anisotropy": [7893835000.0], "volume": [107.6935], "equilibrium_reaction_energy_per_atom": [-0.1733527]}