{"includesElement": ["", "S", "W"], "includesElement___series_id": [1, 8], "includesElement__abundance_crust": [350.0, 1.25], "includesElement__atomic_number": [16, 74], "includesElement__atomic_radius": [100.0, 135.0], "includesElement__atomic_radius_rahm": [214.0, 253.0], "includesElement__atomic_volume": [15.5, 9.53], "includesElement__atomic_weight": [32.06, 183.84], "includesElement__covalent_radius_cordero": [105.0, 162.0], "includesElement__covalent_radius_pyykko": [103.0, 137.0], "includesElement__covalent_radius_pyykko_double": [94.0, 120.0], "includesElement__covalent_radius_pyykko_triple": [95.0, 115.0], "includesElement__density": [2.07, 19.3], "includesElement__dipole_polarizability": [19.4, 68.0], "includesElement__dipole_polarizability_unc": [0.1, 15.0], "includesElement__electron_affinity": [2.077104, 0.81626], "includesElement__electronegativity_allred-rochow": [0.0005137148, 0.0001838137], "includesElement__electronegativity_cottrell-sutton": [0.2300274, 0.1586899], "includesElement__electronegativity_ghosh": [0.23596, 0.2390504], "includesElement__electronegativity_gordy": [0.05291262, 0.02518248], "includesElement__electronegativity_mulliken": [6.218557, 4.340145], "includesElement__electronegativity_nagle": [0.6762644, 0.4451921], "includesElement__electronegativity_pauling": [2.58, 1.7], "includesElement__electronegativity_sanderson": [0.6397251, 1.019283], "includesElement__en_ghosh": [0.23596, 0.2390504], "includesElement__en_pauling": [2.58, 1.7], "includesElement__evaporation_heat": [10.5, 824.0], "includesElement__fusion_heat": [1.23, 35.0], "includesElement__glawe_number": [96, 57], "includesElement__group_id": [16, 6], "includesElement__heat_of_formation": [277.17, 851.0], "includesElement__is_radioactive": [false], "includesElement__lattice_constant": [10.47, 3.16], "includesElement__mendeleev_number": [100, 53], "includesElement__molar_heat_capacity": [22.7, 24.27], "includesElement__period": [3, 6], "includesElement__pettifor_number": [94, 56], "includesElement__specific_heat_capacity": [0.708, 0.132], "includesElement__vdw_radius": [180.0, 218.0], "includesElement__vdw_radius_alvarez": [189.0, 257.0], "includesElement__vdw_radius_mm3": [215.0, 239.0], "includesElement__vdw_radius_uff": [403.5, 309.6], "includesElement__abundance_sea": [905.0, 0.0001], "includesElement__c6_gb": [140.0, 757.0], "includesElement__covalent_radius_bragg": [102.0], "includesElement__electronegativity_allen": [15.31, 8.67], "includesElement__en_allen": [15.31, 8.67], "includesElement__metallic_radius": [104.0, 130.0], "includesElement__metallic_radius_c12": [127.0, 139.0], "includesElement__thermal_conductivity": [0.27, 173.0], "includesElement__vdw_radius_batsanov": [180.0, 210.0], "includesElement__c6": [134.0], "includesElement__vdw_radius_dreiding": [403.0], "includesElement__gas_basicity": [640.2], "includesElement__proton_affinity": [664.3], "includesElement__vdw_radius_bondi": [180.0], "includesElement__vdw_radius_rt": [181.0], "includesElement__discovery_year": [1783], "includesElement__atomic_weight_uncertainty": [0.01], "formula": ["S4W2"], "spacegroup": ["194"], "thermalConductivity": [17.3128], "icsd": ["202366"], "band_gap": [1.2557], "density": [7.226425], "density_atomic": [18.99343], "deprecated": [false], "efermi": [5.292512], "energy_above_hull": [0.0], "energy_per_atom": [-23.3622], "formation_energy_per_atom": [-0.8829388], "homogeneous_poisson": [0.207], "is_gap_direct": [false], "is_magnetic": [false], "is_metal": [false], "is_stable": [true], "nelements": [2], "nsites": [6], "num_magnetic_sites": [0], "num_unique_magnetic_sites": [0], "theoretical": [false], "total_magnetization": [0.0], "total_magnetization_normalized_formula_units": [0.0], "total_magnetization_normalized_vol": [0.0], "uncorrected_energy_per_atom": [-23.3622], "universal_anisotropy": [106.055], "volume": [113.9606], "cbm": [6.4651], "e_electronic": [9.253936], "e_ionic": [0.05854695], "e_total": [9.312483], "equilibrium_reaction_energy_per_atom": [-0.8829388], "n": [3.042028], "vbm": [5.2094]}