{"includesElement": ["", "Se", "Rb"], "includesElement___series_id": [1, 3], "includesElement__abundance_crust": [0.05, 90.0], "includesElement__atomic_number": [34, 37], "includesElement__atomic_radius": [115.0, 235.0], "includesElement__atomic_radius_rahm": [224.0, 240.0], "includesElement__atomic_volume": [16.5, 55.9], "includesElement__atomic_weight": [78.971, 85.4678], "includesElement__covalent_radius_cordero": [120.0, 220.0], "includesElement__covalent_radius_pyykko": [116.0, 210.0], "includesElement__covalent_radius_pyykko_double": [107.0, 202.0], "includesElement__covalent_radius_pyykko_triple": [107.0], "includesElement__density": [4.809, 1.53], "includesElement__dipole_polarizability": [28.9, 319.8], "includesElement__dipole_polarizability_unc": [1.0, 0.3], "includesElement__discovery_year": [1818, 1861], "includesElement__electron_affinity": [2.02067, 0.48592], "includesElement__electronegativity_allred-rochow": [0.0005164982, 4.988662e-05], "includesElement__electronegativity_cottrell-sutton": [0.2447729, 0.1023533], "includesElement__electronegativity_ghosh": [0.2240328, 0.104686], "includesElement__electronegativity_gordy": [0.05991379, 0.01047619], "includesElement__electronegativity_mulliken": [5.886531, 2.331524], "includesElement__electronegativity_nagle": [0.592131, 0.1462314], "includesElement__electronegativity_pauling": [2.55, 0.82], "includesElement__electronegativity_sanderson": [0.9659121, 0.1764136], "includesElement__en_ghosh": [0.2240328, 0.104686], "includesElement__en_pauling": [2.55, 0.82], "includesElement__evaporation_heat": [59.7, 75.8], "includesElement__fusion_heat": [5.23, 2.2], "includesElement__glawe_number": [95, 9], "includesElement__group_id": [16, 1], "includesElement__heat_of_formation": [227.2, 80.9], "includesElement__is_radioactive": [false], "includesElement__lattice_constant": [4.36, 5.59], "includesElement__mendeleev_number": [101, 4], "includesElement__molar_heat_capacity": [25.363, 31.06], "includesElement__period": [4, 5], "includesElement__pettifor_number": [93, 9], "includesElement__specific_heat_capacity": [0.321, 0.363], "includesElement__vdw_radius": [190.0, 303.0], "includesElement__vdw_radius_alvarez": [182.0, 321.0], "includesElement__vdw_radius_mm3": [229.0, 325.0], "includesElement__vdw_radius_uff": [420.5, 411.4], "includesElement__abundance_sea": [0.0002, 0.12], "includesElement__atomic_weight_uncertainty": [0.008, 0.0003], "includesElement__c6_gb": [233.0, 4660.0], "includesElement__covalent_radius_bragg": [117.0, 225.0], "includesElement__electronegativity_allen": [14.34, 4.177], "includesElement__en_allen": [14.34, 4.177], "includesElement__metallic_radius": [117.0, 216.0], "includesElement__metallic_radius_c12": [140.0, 248.0], "includesElement__thermal_conductivity": [0.52, 58.2], "includesElement__vdw_radius_batsanov": [190.0, 290.0], "includesElement__c6": [210.0, 4769.0], "includesElement__vdw_radius_dreiding": [403.0], "includesElement__vdw_radius_bondi": [190.0], "includesElement__vdw_radius_truhlar": [303.0], "formula": ["Rb2Se1"], "spacegroup": ["225"], "thermalConductivity": [0.973149], "icsd": ["168449"], "band_gap": [1.7968], "density": [3.172724], "density_atomic": [43.59675], "deprecated": [false], "efermi": [-0.3352051], "energy_above_hull": [0.0], "energy_per_atom": [-3.026281], "formation_energy_per_atom": [-1.207288], "homogeneous_poisson": [0.282], "is_gap_direct": [false], "is_magnetic": [false], "is_metal": [false], "is_stable": [true], "nelements": [2], "nsites": [3], "num_magnetic_sites": [0], "num_unique_magnetic_sites": [0], "theoretical": [false], "total_magnetization": [0.0], "total_magnetization_normalized_formula_units": [0.0], "total_magnetization_normalized_vol": [0.0], "uncorrected_energy_per_atom": [-15.30868], "universal_anisotropy": [0.109], "volume": [130.7902], "cbm": [1.401], "e_electronic": [3.314659], "e_ionic": [3.479403], "e_total": [6.794062], "equilibrium_reaction_energy_per_atom": [-0.4311352], "n": [1.820621], "vbm": [-0.3958]}