{"includesElement": ["", "O", "W"], "includesElement___series_id": [1, 8], "includesElement__abundance_crust": [461000.0, 1.25], "includesElement__atomic_number": [8, 74], "includesElement__atomic_radius": [60.0, 135.0], "includesElement__atomic_radius_rahm": [171.0, 253.0], "includesElement__atomic_volume": [14.0, 9.53], "includesElement__atomic_weight": [15.999, 183.84], "includesElement__covalent_radius_cordero": [66.0, 162.0], "includesElement__covalent_radius_pyykko": [63.0, 137.0], "includesElement__covalent_radius_pyykko_double": [57.0, 120.0], "includesElement__covalent_radius_pyykko_triple": [53.0, 115.0], "includesElement__density": [0.001308, 19.3], "includesElement__dipole_polarizability": [5.3, 68.0], "includesElement__dipole_polarizability_unc": [0.2, 15.0], "includesElement__discovery_year": [1774, 1783], "includesElement__electron_affinity": [1.461113, 0.81626], "includesElement__electronegativity_allred-rochow": [0.001146384, 0.0001838137], "includesElement__electronegativity_cottrell-sutton": [0.2687419, 0.1586899], "includesElement__electronegativity_ghosh": [0.304575, 0.2390504], "includesElement__electronegativity_gordy": [0.07222222, 0.02518248], "includesElement__electronegativity_mulliken": [7.539584, 4.340145], "includesElement__electronegativity_nagle": [1.042218, 0.4451921], "includesElement__electronegativity_pauling": [3.44, 1.7], "includesElement__electronegativity_sanderson": [0.9416494, 1.019283], "includesElement__en_ghosh": [0.304575, 0.2390504], "includesElement__en_pauling": [3.44, 1.7], "includesElement__glawe_number": [97, 57], "includesElement__group_id": [16, 6], "includesElement__heat_of_formation": [249.229, 851.0], "includesElement__is_radioactive": [false], "includesElement__lattice_constant": [6.83, 3.16], "includesElement__mendeleev_number": [99, 53], "includesElement__molar_heat_capacity": [29.378, 24.27], "includesElement__period": [2, 6], "includesElement__pettifor_number": [101, 56], "includesElement__specific_heat_capacity": [0.918, 0.132], "includesElement__vdw_radius": [152.0, 218.0], "includesElement__vdw_radius_alvarez": [150.0, 257.0], "includesElement__vdw_radius_mm3": [182.0, 239.0], "includesElement__vdw_radius_uff": [350.0, 309.6], "includesElement__abundance_sea": [857000.0, 0.0001], "includesElement__c6_gb": [16.7, 757.0], "includesElement__covalent_radius_bragg": [65.0], "includesElement__electronegativity_allen": [21.36, 8.67], "includesElement__en_allen": [21.36, 8.67], "includesElement__thermal_conductivity": [0.027, 173.0], "includesElement__vdw_radius_batsanov": [155.0, 210.0], "includesElement__c6": [15.6], "includesElement__vdw_radius_dreiding": [340.46], "includesElement__gas_basicity": [459.6], "includesElement__proton_affinity": [485.2], "includesElement__vdw_radius_bondi": [152.0], "includesElement__vdw_radius_rt": [158.0], "includesElement__evaporation_heat": [824.0], "includesElement__fusion_heat": [35.0], "includesElement__atomic_weight_uncertainty": [0.01], "includesElement__metallic_radius": [130.0], "includesElement__metallic_radius_c12": [139.0], "formula": ["O4W2"], "spacegroup": ["136"], "thermalConductivity": [19.1694], "icsd": ["647647"], "band_gap": [0.0], "density": [9.601454], "density_atomic": [12.44286], "deprecated": [false], "efermi": [5.122802], "energy_above_hull": [0.0], "energy_per_atom": [-9.654684], "formation_energy_per_atom": [-2.033798], "is_gap_direct": [false], "is_magnetic": [true], "is_metal": [true], "is_stable": [true], "nelements": [2], "nsites": [6], "num_magnetic_sites": [2], "num_unique_magnetic_sites": [1], "theoretical": [false], "total_magnetization": [3.999961], "total_magnetization_normalized_formula_units": [1.999981], "total_magnetization_normalized_vol": [0.05357771], "uncorrected_energy_per_atom": [-7.717351], "volume": [74.65719], "e_electronic": [5.620212], "e_ionic": [5.710924], "e_total": [11.33114], "equilibrium_reaction_energy_per_atom": [-0.08923487], "n": [2.370699]}