{"includesElement": ["", "O", "Fe"], "includesElement___series_id": [1, 8], "includesElement__abundance_crust": [461000.0, 56300.0], "includesElement__atomic_number": [8, 26], "includesElement__atomic_radius": [60.0, 140.0], "includesElement__atomic_radius_rahm": [171.0, 237.0], "includesElement__atomic_volume": [14.0, 7.1], "includesElement__atomic_weight": [15.999, 55.845], "includesElement__covalent_radius_cordero": [66.0, 142.0], "includesElement__covalent_radius_pyykko": [63.0, 116.0], "includesElement__covalent_radius_pyykko_double": [57.0, 109.0], "includesElement__covalent_radius_pyykko_triple": [53.0, 102.0], "includesElement__density": [0.001308, 7.87], "includesElement__dipole_polarizability": [5.3, 62.0], "includesElement__dipole_polarizability_unc": [0.2, 4.0], "includesElement__discovery_year": [1774], "includesElement__electron_affinity": [1.461113, 0.151], "includesElement__electronegativity_allred-rochow": [0.001146384, 0.0002786861], "includesElement__electronegativity_cottrell-sutton": [0.2687419, 0.1797987], "includesElement__electronegativity_ghosh": [0.304575, 0.1392532], "includesElement__electronegativity_gordy": [0.07222222, 0.03232759], "includesElement__electronegativity_mulliken": [7.539584, 4.026734], "includesElement__electronegativity_nagle": [1.042218, 0.5053195], "includesElement__electronegativity_pauling": [3.44, 1.83], "includesElement__electronegativity_sanderson": [0.9416494, 0.748727], "includesElement__en_ghosh": [0.304575, 0.1392532], "includesElement__en_pauling": [3.44, 1.83], "includesElement__glawe_number": [97, 71], "includesElement__group_id": [16, 8], "includesElement__heat_of_formation": [249.229, 415.5], "includesElement__is_radioactive": [false], "includesElement__lattice_constant": [6.83, 2.87], "includesElement__mendeleev_number": [99, 59], "includesElement__molar_heat_capacity": [29.378, 25.1], "includesElement__period": [2, 4], "includesElement__pettifor_number": [101, 61], "includesElement__specific_heat_capacity": [0.918, 0.449], "includesElement__vdw_radius": [152.0, 204.0], "includesElement__vdw_radius_alvarez": [150.0, 244.0], "includesElement__vdw_radius_mm3": [182.0, 223.0], "includesElement__vdw_radius_uff": [350.0, 291.2], "includesElement__abundance_sea": [857000.0, 0.002], "includesElement__c6_gb": [16.7, 548.0], "includesElement__covalent_radius_bragg": [65.0, 140.0], "includesElement__electronegativity_allen": [21.36, 10.64], "includesElement__en_allen": [21.36, 10.64], "includesElement__thermal_conductivity": [0.027, 80.4], "includesElement__vdw_radius_batsanov": [155.0, 205.0], "includesElement__c6": [15.6, 482.0], "includesElement__vdw_radius_dreiding": [340.46], "includesElement__gas_basicity": [459.6, 731.1], "includesElement__proton_affinity": [485.2, 754.0], "includesElement__vdw_radius_bondi": [152.0], "includesElement__vdw_radius_rt": [158.0], "includesElement__evaporation_heat": [340.0], "includesElement__fusion_heat": [13.8], "includesElement__atomic_weight_uncertainty": [0.002], "includesElement__metallic_radius": [117.0], "includesElement__metallic_radius_c12": [126.0], "formula": ["Fe1O1"], "spacegroup": ["225"], "thermalConductivity": [9.91425], "icsd": ["180972"], "band_gap": [0.0], "density": [6.162133], "density_atomic": [9.680125], "deprecated": [false], "efermi": [6.321308], "energy_above_hull": [0.4101747], "energy_per_atom": [-7.780336], "formation_energy_per_atom": [-1.069193], "is_gap_direct": [false], "is_magnetic": [true], "is_metal": [true], "is_stable": [false], "nelements": [2], "nsites": [4], "num_magnetic_sites": [2], "num_unique_magnetic_sites": [2], "theoretical": [false], "total_magnetization": [8.000114], "total_magnetization_normalized_formula_units": [4.000057], "total_magnetization_normalized_vol": [0.2066119], "uncorrected_energy_per_atom": [-6.308836], "volume": [38.7205]}