{"includesElement": ["", "Y"], "includesElement___series_id": [8], "includesElement__abundance_crust": [33.0], "includesElement__atomic_number": [39], "includesElement__atomic_radius": [180.0], "includesElement__atomic_radius_rahm": [274.0], "includesElement__atomic_volume": [19.8], "includesElement__atomic_weight": [88.90584], "includesElement__covalent_radius_cordero": [190.0], "includesElement__covalent_radius_pyykko": [163.0], "includesElement__covalent_radius_pyykko_double": [130.0], "includesElement__covalent_radius_pyykko_triple": [124.0], "includesElement__density": [4.47], "includesElement__dipole_polarizability": [162.0], "includesElement__dipole_polarizability_unc": [12.0], "includesElement__discovery_year": [1789], "includesElement__electron_affinity": [0.307], "includesElement__electronegativity_allred-rochow": [0.0001129135], "includesElement__electronegativity_cottrell-sutton": [0.1356647], "includesElement__electronegativity_ghosh": [0.1216986], "includesElement__electronegativity_gordy": [0.01840491], "includesElement__electronegativity_mulliken": [3.26213], "includesElement__electronegativity_nagle": [0.2645668], "includesElement__electronegativity_pauling": [1.22], "includesElement__electronegativity_sanderson": [0.3923941], "includesElement__en_ghosh": [0.1216986], "includesElement__en_pauling": [1.22], "includesElement__evaporation_heat": [367.0], "includesElement__fusion_heat": [11.5], "includesElement__glawe_number": [21], "includesElement__group_id": [3], "includesElement__heat_of_formation": [424.7], "includesElement__is_radioactive": [false], "includesElement__lattice_constant": [3.65], "includesElement__mendeleev_number": [12], "includesElement__molar_heat_capacity": [26.53], "includesElement__period": [5], "includesElement__pettifor_number": [19], "includesElement__specific_heat_capacity": [0.298], "includesElement__vdw_radius": [232.0], "includesElement__vdw_radius_alvarez": [275.0], "includesElement__vdw_radius_mm3": [271.0], "includesElement__vdw_radius_uff": [334.5], "includesElement__abundance_sea": [1.3e-05], "includesElement__atomic_weight_uncertainty": [2e-05], "includesElement__c6_gb": [2600.0], "includesElement__electronegativity_allen": [6.631], "includesElement__en_allen": [6.631], "includesElement__metallic_radius": [162.0], "includesElement__metallic_radius_c12": [180.0], "includesElement__vdw_radius_batsanov": [240.0], "includesElement__is_monoisotopic": [true], "includesElement__gas_basicity": [945.9], "includesElement__proton_affinity": [967.0], "formula": ["Y2"], "spacegroup": ["194"], "thermalConductivity": [20.2194], "icsd": ["43588"], "band_gap": [0.0], "density": [4.370669], "density_atomic": [33.77781], "deprecated": [false], "efermi": [3.126413], "energy_above_hull": [0.0], "energy_per_atom": [-20.3136], "formation_energy_per_atom": [0.0], "has_reconstructed": [false], "homogeneous_poisson": [0.233], "is_gap_direct": [false], "is_magnetic": [true], "is_metal": [true], "is_stable": [true], "nelements": [1], "nsites": [2], "num_magnetic_sites": [2], "num_unique_magnetic_sites": [1], "shape_factor": [5.028871], "surface_anisotropy": [0.0350397], "theoretical": [false], "total_magnetization": [1.326102], "total_magnetization_normalized_formula_units": [0.6630512], "total_magnetization_normalized_vol": [0.01962978], "uncorrected_energy_per_atom": [-20.3136], "universal_anisotropy": [0.02], "volume": [67.55563], "weighted_surface_energy": [0.9989779], "weighted_surface_energy_EV_PER_ANG2": [0.0623513], "weighted_work_function": [2.992029], "equilibrium_reaction_energy_per_atom": [0.0]}