{"includesElement": ["", "N", "W"], "includesElement___series_id": [1, 8], "includesElement__abundance_crust": [19.0, 1.25], "includesElement__atomic_number": [7, 74], "includesElement__atomic_radius": [65.0, 135.0], "includesElement__atomic_radius_rahm": [179.0, 253.0], "includesElement__atomic_volume": [17.3, 9.53], "includesElement__atomic_weight": [14.007, 183.84], "includesElement__covalent_radius_cordero": [71.0, 162.0], "includesElement__covalent_radius_pyykko": [71.0, 137.0], "includesElement__covalent_radius_pyykko_double": [60.0, 120.0], "includesElement__covalent_radius_pyykko_triple": [54.0, 115.0], "includesElement__density": [0.001145, 19.3], "includesElement__dipole_polarizability": [7.4, 68.0], "includesElement__dipole_polarizability_unc": [0.2, 15.0], "includesElement__discovery_year": [1772, 1783], "includesElement__electron_affinity": [-1.4, 0.81626], "includesElement__electronegativity_allred-rochow": [0.000773656, 0.0001838137], "includesElement__electronegativity_cottrell-sutton": [0.2343706, 0.1586899], "includesElement__electronegativity_ghosh": [0.26493, 0.2390504], "includesElement__electronegativity_gordy": [0.05492958, 0.02518248], "includesElement__electronegativity_mulliken": [6.567065, 4.340145], "includesElement__electronegativity_nagle": [0.8774979, 0.4451921], "includesElement__electronegativity_pauling": [3.04, 1.7], "includesElement__electronegativity_sanderson": [0.577482, 1.019283], "includesElement__en_ghosh": [0.26493, 0.2390504], "includesElement__en_pauling": [3.04, 1.7], "includesElement__glawe_number": [88, 57], "includesElement__group_id": [15, 6], "includesElement__heat_of_formation": [472.44, 851.0], "includesElement__is_radioactive": [false], "includesElement__lattice_constant": [4.039, 3.16], "includesElement__mendeleev_number": [93, 53], "includesElement__molar_heat_capacity": [29.124, 24.27], "includesElement__period": [2, 6], "includesElement__pettifor_number": [100, 56], "includesElement__specific_heat_capacity": [1.04, 0.132], "includesElement__vdw_radius": [155.0, 218.0], "includesElement__vdw_radius_alvarez": [166.0, 257.0], "includesElement__vdw_radius_mm3": [193.0, 239.0], "includesElement__vdw_radius_uff": [366.0, 309.6], "includesElement__abundance_sea": [0.5, 0.0001], "includesElement__c6_gb": [25.7, 757.0], "includesElement__covalent_radius_bragg": [65.0], "includesElement__electronegativity_allen": [18.13, 8.67], "includesElement__en_allen": [18.13, 8.67], "includesElement__metallic_radius_c12": [53.0, 139.0], "includesElement__thermal_conductivity": [0.026, 173.0], "includesElement__vdw_radius_batsanov": [160.0, 210.0], "includesElement__c6": [24.2], "includesElement__vdw_radius_dreiding": [366.21], "includesElement__gas_basicity": [318.7], "includesElement__proton_affinity": [342.2], "includesElement__vdw_radius_bondi": [155.0], "includesElement__vdw_radius_rt": [164.0], "includesElement__evaporation_heat": [824.0], "includesElement__fusion_heat": [35.0], "includesElement__atomic_weight_uncertainty": [0.01], "includesElement__metallic_radius": [130.0], "formula": ["N4W3"], "spacegroup": ["221"], "thermalConductivity": [7.69534], "icsd": ["186209"], "band_gap": [0.0], "density": [13.35456], "density_atomic": [10.79199], "deprecated": [false], "efermi": [7.965513], "energy_above_hull": [0.3650574], "energy_per_atom": [-27.39691], "formation_energy_per_atom": [-0.1657092], "homogeneous_poisson": [0.404], "is_gap_direct": [false], "is_magnetic": [false], "is_metal": [true], "is_stable": [false], "nelements": [2], "nsites": [7], "num_magnetic_sites": [0], "num_unique_magnetic_sites": [0], "theoretical": [false], "total_magnetization": [0.0011824], "total_magnetization_normalized_formula_units": [0.0011824], "total_magnetization_normalized_vol": [1.565183e-05], "uncorrected_energy_per_atom": [-10.36216], "universal_anisotropy": [0.683], "volume": [75.5439]}