{"includesElement": ["", "Sb"], "includesElement___series_id": [5], "includesElement__abundance_crust": [0.2], "includesElement__atomic_number": [51], "includesElement__atomic_radius": [145.0], "includesElement__atomic_radius_rahm": [246.0], "includesElement__atomic_volume": [18.4], "includesElement__atomic_weight": [121.76], "includesElement__covalent_radius_cordero": [139.0], "includesElement__covalent_radius_pyykko": [140.0], "includesElement__covalent_radius_pyykko_double": [133.0], "includesElement__covalent_radius_pyykko_triple": [127.0], "includesElement__density": [6.68], "includesElement__dipole_polarizability": [43.0], "includesElement__dipole_polarizability_unc": [2.0], "includesElement__electron_affinity": [1.046], "includesElement__electronegativity_allred-rochow": [0.0003214286], "includesElement__electronegativity_cottrell-sutton": [0.212132], "includesElement__electronegativity_ghosh": [0.1918774], "includesElement__electronegativity_gordy": [0.045], "includesElement__electronegativity_mulliken": [4.827195], "includesElement__electronegativity_nagle": [0.4880907], "includesElement__electronegativity_pauling": [2.05], "includesElement__electronegativity_sanderson": [0.7762722], "includesElement__en_ghosh": [0.1918774], "includesElement__en_pauling": [2.05], "includesElement__evaporation_heat": [195.2], "includesElement__fusion_heat": [20.08], "includesElement__glawe_number": [91], "includesElement__group_id": [15], "includesElement__heat_of_formation": [264.4], "includesElement__is_radioactive": [false], "includesElement__lattice_constant": [4.51], "includesElement__mendeleev_number": [96], "includesElement__molar_heat_capacity": [25.23], "includesElement__period": [5], "includesElement__pettifor_number": [88], "includesElement__specific_heat_capacity": [0.207], "includesElement__vdw_radius": [206.0], "includesElement__vdw_radius_alvarez": [247.0], "includesElement__vdw_radius_mm3": [252.0], "includesElement__vdw_radius_uff": [442.0], "includesElement__abundance_sea": [0.00024], "includesElement__atomic_weight_uncertainty": [0.001], "includesElement__c6_gb": [504.0], "includesElement__covalent_radius_bragg": [140.0], "includesElement__electronegativity_allen": [11.74], "includesElement__en_allen": [11.74], "includesElement__metallic_radius": [139.0], "includesElement__metallic_radius_c12": [166.0], "includesElement__thermal_conductivity": [24.43], "includesElement__vdw_radius_batsanov": [220.0], "includesElement__c6": [492.0], "includesElement__vdw_radius_dreiding": [435.0], "includesElement__vdw_radius_truhlar": [206.0], "formula": ["Sb1"], "spacegroup": ["221"], "thermalConductivity": [3.83874], "icsd": ["52227"], "band_gap": [0.0], "density": [6.89744], "density_atomic": [29.31337], "deprecated": [false], "efermi": [7.110442], "energy_above_hull": [0.04644237], "energy_per_atom": [-25.65987], "formation_energy_per_atom": [0.04644237], "has_reconstructed": [false], "homogeneous_poisson": [0.327], "is_gap_direct": [false], "is_magnetic": [false], "is_metal": [true], "is_stable": [false], "nelements": [1], "nsites": [1], "num_magnetic_sites": [0], "num_unique_magnetic_sites": [0], "shape_factor": [5.719106], "surface_anisotropy": [0.0], "theoretical": [false], "total_magnetization": [0.0], "total_magnetization_normalized_formula_units": [0.0], "total_magnetization_normalized_vol": [0.0], "uncorrected_energy_per_atom": [-25.65987], "universal_anisotropy": [5.279], "volume": [29.31337], "weighted_surface_energy": [0.03881969], "weighted_surface_energy_EV_PER_ANG2": [0.002422935], "weighted_work_function": [4.160321]}