{"includesElement": ["", "Na", "S"], "includesElement___series_id": [3, 1], "includesElement__abundance_crust": [23600.0, 350.0], "includesElement__atomic_number": [11, 16], "includesElement__atomic_radius": [180.0, 100.0], "includesElement__atomic_radius_rahm": [225.0, 214.0], "includesElement__atomic_volume": [23.7, 15.5], "includesElement__atomic_weight": [22.98977, 32.06], "includesElement__covalent_radius_cordero": [166.0, 105.0], "includesElement__covalent_radius_pyykko": [155.0, 103.0], "includesElement__covalent_radius_pyykko_double": [160.0, 94.0], "includesElement__density": [0.97, 2.07], "includesElement__dipole_polarizability": [162.7, 19.4], "includesElement__dipole_polarizability_unc": [0.5, 0.1], "includesElement__discovery_year": [1807], "includesElement__electron_affinity": [0.547926, 2.077104], "includesElement__electronegativity_allred-rochow": [9.157128e-05, 0.0005137148], "includesElement__electronegativity_cottrell-sutton": [0.1191367, 0.2300274], "includesElement__electronegativity_ghosh": [0.093214, 0.23596], "includesElement__electronegativity_gordy": [0.01419355, 0.05291262], "includesElement__electronegativity_mulliken": [2.843501, 6.218557], "includesElement__electronegativity_nagle": [0.1831769, 0.6762644], "includesElement__electronegativity_pauling": [0.93, 2.58], "includesElement__electronegativity_sanderson": [0.09459764, 0.6397251], "includesElement__en_ghosh": [0.093214, 0.23596], "includesElement__en_pauling": [0.93, 2.58], "includesElement__evaporation_heat": [97.9, 10.5], "includesElement__fusion_heat": [2.64, 1.23], "includesElement__glawe_number": [11, 96], "includesElement__group_id": [1, 16], "includesElement__heat_of_formation": [107.5, 277.17], "includesElement__is_radioactive": [false], "includesElement__lattice_constant": [4.23, 10.47], "includesElement__mendeleev_number": [2, 100], "includesElement__molar_heat_capacity": [28.23, 22.7], "includesElement__period": [3], "includesElement__pettifor_number": [11, 94], "includesElement__specific_heat_capacity": [1.228, 0.708], "includesElement__vdw_radius": [227.0, 180.0], "includesElement__vdw_radius_alvarez": [250.0, 189.0], "includesElement__vdw_radius_mm3": [270.0, 215.0], "includesElement__vdw_radius_uff": [298.3, 403.5], "includesElement__abundance_sea": [10800.0, 905.0], "includesElement__atomic_weight_uncertainty": [2e-08], "includesElement__c6_gb": [1570.0, 140.0], "includesElement__covalent_radius_bragg": [177.0, 102.0], "includesElement__electronegativity_allen": [5.14, 15.31], "includesElement__en_allen": [5.14, 15.31], "includesElement__metallic_radius": [157.0, 104.0], "includesElement__metallic_radius_c12": [190.0, 127.0], "includesElement__thermal_conductivity": [142.0, 0.27], "includesElement__vdw_radius_batsanov": [240.0, 180.0], "includesElement__c6": [1518.0, 134.0], "includesElement__is_monoisotopic": [true], "includesElement__vdw_radius_bondi": [227.0, 180.0], "includesElement__covalent_radius_pyykko_triple": [95.0], "includesElement__vdw_radius_dreiding": [403.0], "includesElement__gas_basicity": [640.2], "includesElement__proton_affinity": [664.3], "includesElement__vdw_radius_rt": [181.0], "formula": ["Na4S4"], "spacegroup": ["194"], "thermalConductivity": [2.04933], "icsd": ["644958"], "band_gap": [1.2348], "density": [2.094029], "density_atomic": [21.82887], "deprecated": [false], "efermi": [2.01369], "energy_above_hull": [0.0], "energy_per_atom": [-6.80338], "formation_energy_per_atom": [-1.00379], "is_gap_direct": [true], "is_magnetic": [false], "is_metal": [false], "is_stable": [true], "nelements": [2], "nsites": [8], "num_magnetic_sites": [0], "num_unique_magnetic_sites": [0], "theoretical": [false], "total_magnetization": [0.0], "total_magnetization_normalized_formula_units": [0.0], "total_magnetization_normalized_vol": [0.0], "uncorrected_energy_per_atom": [-6.80338], "volume": [174.631], "cbm": [3.1975], "e_electronic": [4.084837], "e_ionic": [4.141168], "e_total": [8.226004], "equilibrium_reaction_energy_per_atom": [-0.01672261], "n": [2.021098], "vbm": [1.9627]}