{"includesElement": ["", "K", "H"], "includesElement___series_id": [3, 1], "includesElement__abundance_crust": [20900.0, 1400.0], "includesElement__atomic_number": [19, 1], "includesElement__atomic_radius": [220.0, 25.0], "includesElement__atomic_radius_rahm": [234.0, 154.0], "includesElement__atomic_volume": [45.3, 14.1], "includesElement__atomic_weight": [39.0983, 1.008], "includesElement__covalent_radius_cordero": [203.0, 31.0], "includesElement__covalent_radius_pyykko": [196.0, 32.0], "includesElement__covalent_radius_pyykko_double": [193.0], "includesElement__density": [0.89, 8.2e-05], "includesElement__dipole_polarizability": [289.7, 4.50711], "includesElement__dipole_polarizability_unc": [0.3, 3e-05], "includesElement__discovery_year": [1807, 1766], "includesElement__electron_affinity": [0.50147, 0.754195], "includesElement__electronegativity_allred-rochow": [5.726781e-05, 0.0009765625], "includesElement__electronegativity_cottrell-sutton": [0.1059457, 0.1767767], "includesElement__electronegativity_ghosh": [0.0981896, 0.2638], "includesElement__electronegativity_gordy": [0.01122449, 0.03125], "includesElement__electronegativity_mulliken": [2.421067, 7.176315], "includesElement__electronegativity_nagle": [0.1511299, 0.6053882], "includesElement__electronegativity_pauling": [0.82, 2.2], "includesElement__electronegativity_sanderson": [0.1218383, 2.187771], "includesElement__en_ghosh": [0.0981896, 0.2638], "includesElement__en_pauling": [0.82, 2.2], "includesElement__evaporation_heat": [2.33, 0.904], "includesElement__fusion_heat": [102.5, 0.117], "includesElement__glawe_number": [10, 103], "includesElement__group_id": [1], "includesElement__heat_of_formation": [89.0, 217.998], "includesElement__is_radioactive": [false], "includesElement__lattice_constant": [5.23, 3.75], "includesElement__mendeleev_number": [3, 105], "includesElement__molar_heat_capacity": [29.6, 28.836], "includesElement__period": [4, 1], "includesElement__pettifor_number": [10, 103], "includesElement__specific_heat_capacity": [0.757, 14.304], "includesElement__vdw_radius": [275.0, 110.0], "includesElement__vdw_radius_alvarez": [273.0, 120.0], "includesElement__vdw_radius_mm3": [309.0, 162.0], "includesElement__vdw_radius_uff": [381.2, 288.6], "includesElement__abundance_sea": [399.0, 108000.0], "includesElement__atomic_weight_uncertainty": [0.0001], "includesElement__c6_gb": [3910.0, 6.51], "includesElement__covalent_radius_bragg": [207.0], "includesElement__electronegativity_allen": [4.34, 13.61], "includesElement__en_allen": [4.34, 13.61], "includesElement__metallic_radius": [203.0], "includesElement__metallic_radius_c12": [235.0, 78.0], "includesElement__thermal_conductivity": [79.0, 0.1815], "includesElement__vdw_radius_batsanov": [280.0], "includesElement__c6": [3923.0, 6.499027], "includesElement__vdw_radius_bondi": [275.0, 120.0], "includesElement__vdw_radius_dreiding": [319.5], "includesElement__vdw_radius_rt": [110.0], "formula": ["H1K1", "HK"], "mp_id": ["mp-24084"], "spacegroup": ["225"], "thermalConductivity": [2.25259, 11.32486, 12.98097], "icsd": ["183287"], "band_gap": [3.4331], "density": [1.45948], "density_atomic": [22.81566], "deprecated": [false], "efermi": [-1.586845], "energy_above_hull": [0.0], "energy_per_atom": [-5.02626], "formation_energy_per_atom": [-0.2895717], "homogeneous_poisson": [0.194], "is_gap_direct": [true], "is_magnetic": [false], "is_metal": [false], "is_stable": [true], "nelements": [2], "nsites": [2], "num_magnetic_sites": [0], "num_unique_magnetic_sites": [0], "theoretical": [false], "total_magnetization": [0.0], "total_magnetization_normalized_formula_units": [0.0], "total_magnetization_normalized_vol": [0.0], "uncorrected_energy_per_atom": [-5.02626], "universal_anisotropy": [0.003], "volume": [45.63131], "cbm": [1.8073], "e_electronic": [2.722133], "e_ionic": [5.59861], "e_total": [8.320742], "equilibrium_reaction_energy_per_atom": [-0.2895717], "n": [1.649889], "vbm": [-1.6258]}