{"includesElement": ["", "Cu", "S"], "includesElement___series_id": [8, 1], "includesElement__abundance_crust": [60.0, 350.0], "includesElement__atomic_number": [29, 16], "includesElement__atomic_radius": [135.0, 100.0], "includesElement__atomic_radius_rahm": [217.0, 214.0], "includesElement__atomic_volume": [7.1, 15.5], "includesElement__atomic_weight": [63.546, 32.06], "includesElement__covalent_radius_cordero": [132.0, 105.0], "includesElement__covalent_radius_pyykko": [112.0, 103.0], "includesElement__covalent_radius_pyykko_double": [115.0, 94.0], "includesElement__covalent_radius_pyykko_triple": [120.0, 95.0], "includesElement__density": [8.96, 2.07], "includesElement__dipole_polarizability": [46.5, 19.4], "includesElement__dipole_polarizability_unc": [0.5, 0.1], "includesElement__electron_affinity": [1.235, 2.077104], "includesElement__electronegativity_allred-rochow": [0.0002949617, 0.0005137148], "includesElement__electronegativity_cottrell-sutton": [0.1817573, 0.2300274], "includesElement__electronegativity_ghosh": [0.1511716, 0.23596], "includesElement__electronegativity_gordy": [0.03303571, 0.05291262], "includesElement__electronegativity_mulliken": [4.48069, 6.218557], "includesElement__electronegativity_nagle": [0.6184623, 0.6762644], "includesElement__electronegativity_pauling": [1.9, 2.58], "includesElement__electronegativity_sanderson": [0.9175542, 0.6397251], "includesElement__en_ghosh": [0.1511716, 0.23596], "includesElement__en_pauling": [1.9, 2.58], "includesElement__evaporation_heat": [304.6, 10.5], "includesElement__fusion_heat": [13.01, 1.23], "includesElement__glawe_number": [68, 96], "includesElement__group_id": [11, 16], "includesElement__heat_of_formation": [337.4, 277.17], "includesElement__is_radioactive": [false], "includesElement__lattice_constant": [3.61, 10.47], "includesElement__mendeleev_number": [71, 100], "includesElement__molar_heat_capacity": [24.44, 22.7], "includesElement__period": [4, 3], "includesElement__pettifor_number": [72, 94], "includesElement__specific_heat_capacity": [0.385, 0.708], "includesElement__vdw_radius": [196.0, 180.0], "includesElement__vdw_radius_alvarez": [238.0, 189.0], "includesElement__vdw_radius_mm3": [226.0, 215.0], "includesElement__vdw_radius_uff": [349.5, 403.5], "includesElement__abundance_sea": [0.00025, 905.0], "includesElement__atomic_weight_uncertainty": [0.003], "includesElement__c6_gb": [264.0, 140.0], "includesElement__covalent_radius_bragg": [137.0, 102.0], "includesElement__electronegativity_allen": [10.96, 15.31], "includesElement__en_allen": [10.96, 15.31], "includesElement__metallic_radius": [118.0, 104.0], "includesElement__metallic_radius_c12": [128.0, 127.0], "includesElement__thermal_conductivity": [401.0, 0.27], "includesElement__vdw_radius_batsanov": [200.0, 180.0], "includesElement__c6": [253.0, 134.0], "includesElement__gas_basicity": [632.4, 640.2], "includesElement__proton_affinity": [655.3, 664.3], "includesElement__vdw_radius_dreiding": [403.0], "includesElement__vdw_radius_bondi": [180.0], "includesElement__vdw_radius_rt": [181.0], "formula": ["Cu4S8"], "spacegroup": ["205"], "thermalConductivity": [2.19457], "icsd": ["100510"], "band_gap": [0.0], "density": [4.393519], "density_atomic": [16.08513], "deprecated": [false], "efermi": [6.247002], "energy_above_hull": [0.009459551], "energy_per_atom": [-9.147675], "formation_energy_per_atom": [-0.1754101], "homogeneous_poisson": [0.245], "is_gap_direct": [false], "is_magnetic": [false], "is_metal": [true], "is_stable": [false], "nelements": [2], "nsites": [12], "num_magnetic_sites": [0], "num_unique_magnetic_sites": [0], "theoretical": [false], "total_magnetization": [1.7e-06], "total_magnetization_normalized_formula_units": [4.25e-07], "total_magnetization_normalized_vol": [8.807306e-09], "uncorrected_energy_per_atom": [-9.147675], "universal_anisotropy": [0.409], "volume": [193.0216]}