{"includesElement": ["", "Ni", "O"], "includesElement___series_id": [8, 1], "includesElement__abundance_crust": [84.0, 461000.0], "includesElement__atomic_number": [28, 8], "includesElement__atomic_radius": [135.0, 60.0], "includesElement__atomic_radius_rahm": [229.0, 171.0], "includesElement__atomic_volume": [6.6, 14.0], "includesElement__atomic_weight": [58.6934, 15.999], "includesElement__covalent_radius_cordero": [124.0, 66.0], "includesElement__covalent_radius_pyykko": [110.0, 63.0], "includesElement__covalent_radius_pyykko_double": [101.0, 57.0], "includesElement__covalent_radius_pyykko_triple": [101.0, 53.0], "includesElement__density": [8.9, 0.001308], "includesElement__dipole_polarizability": [49.0, 5.3], "includesElement__dipole_polarizability_unc": [3.0, 0.2], "includesElement__discovery_year": [1751, 1774], "includesElement__electron_affinity": [1.156, 1.461113], "includesElement__electronegativity_allred-rochow": [0.0003347107, 0.001146384], "includesElement__electronegativity_cottrell-sutton": [0.1918806, 0.2687419], "includesElement__electronegativity_ghosh": [0.1472068, 0.304575], "includesElement__electronegativity_gordy": [0.03681818, 0.07222222], "includesElement__electronegativity_mulliken": [4.397939, 7.539584], "includesElement__electronegativity_nagle": [0.588755, 1.042218], "includesElement__electronegativity_pauling": [1.91, 3.44], "includesElement__electronegativity_sanderson": [0.937704, 0.9416494], "includesElement__en_ghosh": [0.1472068, 0.304575], "includesElement__en_pauling": [1.91, 3.44], "includesElement__evaporation_heat": [378.6], "includesElement__fusion_heat": [17.61], "includesElement__glawe_number": [69, 97], "includesElement__group_id": [10, 16], "includesElement__heat_of_formation": [430.1, 249.229], "includesElement__is_radioactive": [false], "includesElement__lattice_constant": [3.52, 6.83], "includesElement__mendeleev_number": [67, 99], "includesElement__molar_heat_capacity": [26.07, 29.378], "includesElement__period": [4, 2], "includesElement__pettifor_number": [67, 101], "includesElement__specific_heat_capacity": [0.444, 0.918], "includesElement__vdw_radius": [197.0, 152.0], "includesElement__vdw_radius_alvarez": [240.0, 150.0], "includesElement__vdw_radius_mm3": [222.0, 182.0], "includesElement__vdw_radius_uff": [283.4, 350.0], "includesElement__abundance_sea": [0.00056, 857000.0], "includesElement__atomic_weight_uncertainty": [0.0004], "includesElement__c6_gb": [393.0, 16.7], "includesElement__covalent_radius_bragg": [135.0, 65.0], "includesElement__electronegativity_allen": [11.13, 21.36], "includesElement__en_allen": [11.13, 21.36], "includesElement__metallic_radius": [115.0], "includesElement__metallic_radius_c12": [124.0], "includesElement__thermal_conductivity": [90.9, 0.027], "includesElement__vdw_radius_batsanov": [200.0, 155.0], "includesElement__c6": [373.0, 15.6], "includesElement__gas_basicity": [714.1, 459.6], "includesElement__proton_affinity": [737.0, 485.2], "includesElement__vdw_radius_dreiding": [340.46], "includesElement__vdw_radius_bondi": [152.0], "includesElement__vdw_radius_rt": [158.0], "formula": ["Ni1O1"], "spacegroup": ["225"], "thermalConductivity": [21.5038], "icsd": ["166115"], "band_gap": [2.3009], "density": [6.762154], "density_atomic": [9.170917], "deprecated": [false], "efermi": [5.871777], "energy_above_hull": [0.0], "energy_per_atom": [-6.582134], "formation_energy_per_atom": [-1.215934], "is_gap_direct": [false], "is_magnetic": [true], "is_metal": [false], "is_stable": [true], "nelements": [2], "nsites": [2], "num_magnetic_sites": [2], "num_unique_magnetic_sites": [2], "theoretical": [false], "total_magnetization": [2.0], "total_magnetization_normalized_formula_units": [2.0], "total_magnetization_normalized_vol": [0.1090404], "uncorrected_energy_per_atom": [-4.968134], "volume": [18.34183], "cbm": [7.9928], "e_electronic": [5.073566], "e_ionic": [9.33386], "e_total": [14.40743], "equilibrium_reaction_energy_per_atom": [-0.302179], "n": [2.252458], "vbm": [5.6919]}