{"includesElement": ["", "N", "Cs"], "includesElement___series_id": [1, 3], "includesElement__abundance_crust": [19.0, 3.0], "includesElement__atomic_number": [7, 55], "includesElement__atomic_radius": [65.0, 260.0], "includesElement__atomic_radius_rahm": [179.0, 249.0], "includesElement__atomic_volume": [17.3, 70.0], "includesElement__atomic_weight": [14.007, 132.9055], "includesElement__covalent_radius_cordero": [71.0, 244.0], "includesElement__covalent_radius_pyykko": [71.0, 232.0], "includesElement__covalent_radius_pyykko_double": [60.0, 209.0], "includesElement__covalent_radius_pyykko_triple": [54.0], "includesElement__density": [0.001145, 1.873], "includesElement__dipole_polarizability": [7.4, 400.9], "includesElement__dipole_polarizability_unc": [0.2, 0.7], "includesElement__discovery_year": [1772, 1860], "includesElement__electron_affinity": [-1.4, 0.471626], "includesElement__electronegativity_allred-rochow": [0.000773656, 4.087396e-05], "includesElement__electronegativity_cottrell-sutton": [0.2343706, 0.09737946], "includesElement__electronegativity_ghosh": [0.26493, 0.1542125], "includesElement__electronegativity_gordy": [0.05492958, 0.009482759], "includesElement__electronegativity_mulliken": [6.567065, 2.182766], "includesElement__electronegativity_nagle": [0.8774979, 0.1356192], "includesElement__electronegativity_pauling": [3.04, 0.79], "includesElement__electronegativity_sanderson": [0.577482, 0.1814531], "includesElement__en_ghosh": [0.26493, 0.1542125], "includesElement__en_pauling": [3.04, 0.79], "includesElement__glawe_number": [88, 8], "includesElement__group_id": [15, 1], "includesElement__heat_of_formation": [472.44, 76.5], "includesElement__is_radioactive": [false], "includesElement__lattice_constant": [4.039, 6.05], "includesElement__mendeleev_number": [93, 5], "includesElement__molar_heat_capacity": [29.124, 32.21], "includesElement__period": [2, 6], "includesElement__pettifor_number": [100, 8], "includesElement__specific_heat_capacity": [1.04, 0.242], "includesElement__vdw_radius": [155.0, 343.0], "includesElement__vdw_radius_alvarez": [166.0, 348.0], "includesElement__vdw_radius_mm3": [193.0, 344.0], "includesElement__vdw_radius_uff": [366.0, 451.7], "includesElement__abundance_sea": [0.5, 0.0003], "includesElement__c6_gb": [25.7, 6660.0], "includesElement__covalent_radius_bragg": [65.0, 237.0], "includesElement__electronegativity_allen": [18.13, 3.898], "includesElement__en_allen": [18.13, 3.898], "includesElement__metallic_radius_c12": [53.0, 267.0], "includesElement__thermal_conductivity": [0.026, 35.9], "includesElement__vdw_radius_batsanov": [160.0, 300.0], "includesElement__c6": [24.2], "includesElement__vdw_radius_dreiding": [366.21], "includesElement__gas_basicity": [318.7], "includesElement__proton_affinity": [342.2], "includesElement__vdw_radius_bondi": [155.0], "includesElement__vdw_radius_rt": [164.0], "includesElement__evaporation_heat": [68.3], "includesElement__fusion_heat": [2.09], "includesElement__atomic_weight_uncertainty": [6e-08], "includesElement__metallic_radius": [235.0], "includesElement__is_monoisotopic": [true], "includesElement__vdw_radius_truhlar": [343.0], "formula": ["Cs2N6"], "spacegroup": ["140"], "thermalConductivity": [3.32689], "icsd": ["155170"], "band_gap": [4.2395], "density": [3.325679], "density_atomic": [21.83545], "deprecated": [false], "efermi": [-0.00078897], "energy_above_hull": [0.0], "energy_per_atom": [-13.34053], "formation_energy_per_atom": [-0.2191669], "homogeneous_poisson": [0.294], "is_gap_direct": [true], "is_magnetic": [false], "is_metal": [false], "is_stable": [true], "nelements": [2], "nsites": [8], "num_magnetic_sites": [0], "num_unique_magnetic_sites": [0], "theoretical": [false], "total_magnetization": [0.0], "total_magnetization_normalized_formula_units": [0.0], "total_magnetization_normalized_vol": [0.0], "uncorrected_energy_per_atom": [-13.34053], "universal_anisotropy": [0.225], "volume": [174.6836], "cbm": [4.1148], "e_electronic": [2.542569], "e_ionic": [4.455871], "e_total": [6.99844], "equilibrium_reaction_energy_per_atom": [-0.2191669], "n": [1.594543], "vbm": [-0.1247]}