{"includesElement": ["", "N", "C"], "includesElement___series_id": [1], "includesElement__abundance_crust": [19.0, 200.0], "includesElement__atomic_number": [7, 6], "includesElement__atomic_radius": [65.0, 70.0], "includesElement__atomic_radius_rahm": [179.0, 190.0], "includesElement__atomic_volume": [17.3, 5.3], "includesElement__atomic_weight": [14.007, 12.011], "includesElement__covalent_radius_cordero": [71.0, 73.0], "includesElement__covalent_radius_pyykko": [71.0, 75.0], "includesElement__covalent_radius_pyykko_double": [60.0, 67.0], "includesElement__covalent_radius_pyykko_triple": [54.0, 60.0], "includesElement__density": [0.001145, 2.2], "includesElement__dipole_polarizability": [7.4, 11.3], "includesElement__dipole_polarizability_unc": [0.2], "includesElement__discovery_year": [1772], "includesElement__electron_affinity": [-1.4, 1.262119], "includesElement__electronegativity_allred-rochow": [0.000773656, 0.0005777778], "includesElement__electronegativity_cottrell-sutton": [0.2343706, 0.2081666], "includesElement__electronegativity_ghosh": [0.26493, 0.224776], "includesElement__electronegativity_gordy": [0.05492958, 0.04333333], "includesElement__electronegativity_mulliken": [6.567065, 6.261208], "includesElement__electronegativity_nagle": [0.8774979, 0.7073926], "includesElement__electronegativity_pauling": [3.04, 2.55], "includesElement__electronegativity_sanderson": [0.577482, 0.427525], "includesElement__en_ghosh": [0.26493, 0.224776], "includesElement__en_pauling": [3.04, 2.55], "includesElement__glawe_number": [88, 87], "includesElement__group_id": [15, 14], "includesElement__heat_of_formation": [472.44, 716.87], "includesElement__is_radioactive": [false], "includesElement__lattice_constant": [4.039, 3.57], "includesElement__mendeleev_number": [93, 87], "includesElement__molar_heat_capacity": [29.124, 8.517], "includesElement__period": [2], "includesElement__pettifor_number": [100, 95], "includesElement__specific_heat_capacity": [1.04, 0.709], "includesElement__vdw_radius": [155.0, 170.0], "includesElement__vdw_radius_alvarez": [166.0, 177.0], "includesElement__vdw_radius_mm3": [193.0, 204.0], "includesElement__vdw_radius_uff": [366.0, 385.1], "includesElement__abundance_sea": [0.5, 28.0], "includesElement__c6_gb": [25.7, 47.9], "includesElement__covalent_radius_bragg": [65.0, 77.0], "includesElement__electronegativity_allen": [18.13, 15.05], "includesElement__en_allen": [18.13, 15.05], "includesElement__metallic_radius_c12": [53.0, 86.0], "includesElement__thermal_conductivity": [0.026, 1.59], "includesElement__vdw_radius_batsanov": [160.0, 170.0], "includesElement__c6": [24.2, 46.6], "includesElement__vdw_radius_dreiding": [366.21, 389.83], "includesElement__gas_basicity": [318.7], "includesElement__proton_affinity": [342.2], "includesElement__vdw_radius_bondi": [155.0, 170.0], "includesElement__vdw_radius_rt": [164.0, 177.0], "formula": ["C6N8"], "spacegroup": ["176"], "thermalConductivity": [52.063], "icsd": ["151781"], "band_gap": [3.1949], "density": [3.50143], "density_atomic": [6.236938], "deprecated": [false], "efermi": [9.364254], "energy_above_hull": [0.3371575], "energy_per_atom": [-8.382715], "formation_energy_per_atom": [0.3371575], "homogeneous_poisson": [0.194], "is_gap_direct": [false], "is_magnetic": [false], "is_metal": [false], "is_stable": [false], "nelements": [2], "nsites": [14], "num_magnetic_sites": [0], "num_unique_magnetic_sites": [0], "theoretical": [false], "total_magnetization": [8.3e-06], "total_magnetization_normalized_formula_units": [4.15e-06], "total_magnetization_normalized_vol": [9.505581e-08], "uncorrected_energy_per_atom": [-8.176429], "universal_anisotropy": [0.163], "volume": [87.31713], "cbm": [12.4458], "vbm": [9.2509]}