{"includesElement": ["", "Ni", "N", "W"], "includesElement___series_id": [8, 1], "includesElement__abundance_crust": [84.0, 19.0, 1.25], "includesElement__atomic_number": [28, 7, 74], "includesElement__atomic_radius": [135.0, 65.0], "includesElement__atomic_radius_rahm": [229.0, 179.0, 253.0], "includesElement__atomic_volume": [6.6, 17.3, 9.53], "includesElement__atomic_weight": [58.6934, 14.007, 183.84], "includesElement__covalent_radius_cordero": [124.0, 71.0, 162.0], "includesElement__covalent_radius_pyykko": [110.0, 71.0, 137.0], "includesElement__covalent_radius_pyykko_double": [101.0, 60.0, 120.0], "includesElement__covalent_radius_pyykko_triple": [101.0, 54.0, 115.0], "includesElement__density": [8.9, 0.001145, 19.3], "includesElement__dipole_polarizability": [49.0, 7.4, 68.0], "includesElement__dipole_polarizability_unc": [3.0, 0.2, 15.0], "includesElement__discovery_year": [1751, 1772, 1783], "includesElement__electron_affinity": [1.156, -1.4, 0.81626], "includesElement__electronegativity_allred-rochow": [0.0003347107, 0.000773656, 0.0001838137], "includesElement__electronegativity_cottrell-sutton": [0.1918806, 0.2343706, 0.1586899], "includesElement__electronegativity_ghosh": [0.1472068, 0.26493, 0.2390504], "includesElement__electronegativity_gordy": [0.03681818, 0.05492958, 0.02518248], "includesElement__electronegativity_mulliken": [4.397939, 6.567065, 4.340145], "includesElement__electronegativity_nagle": [0.588755, 0.8774979, 0.4451921], "includesElement__electronegativity_pauling": [1.91, 3.04, 1.7], "includesElement__electronegativity_sanderson": [0.937704, 0.577482, 1.019283], "includesElement__en_ghosh": [0.1472068, 0.26493, 0.2390504], "includesElement__en_pauling": [1.91, 3.04, 1.7], "includesElement__evaporation_heat": [378.6, 824.0], "includesElement__fusion_heat": [17.61, 35.0], "includesElement__glawe_number": [69, 88, 57], "includesElement__group_id": [10, 15, 6], "includesElement__heat_of_formation": [430.1, 472.44, 851.0], "includesElement__is_radioactive": [false], "includesElement__lattice_constant": [3.52, 4.039, 3.16], "includesElement__mendeleev_number": [67, 93, 53], "includesElement__molar_heat_capacity": [26.07, 29.124, 24.27], "includesElement__period": [4, 2, 6], "includesElement__pettifor_number": [67, 100, 56], "includesElement__specific_heat_capacity": [0.444, 1.04, 0.132], "includesElement__vdw_radius": [197.0, 155.0, 218.0], "includesElement__vdw_radius_alvarez": [240.0, 166.0, 257.0], "includesElement__vdw_radius_mm3": [222.0, 193.0, 239.0], "includesElement__vdw_radius_uff": [283.4, 366.0, 309.6], "includesElement__abundance_sea": [0.00056, 0.5, 0.0001], "includesElement__atomic_weight_uncertainty": [0.0004, 0.01], "includesElement__c6_gb": [393.0, 25.7, 757.0], "includesElement__covalent_radius_bragg": [135.0, 65.0], "includesElement__electronegativity_allen": [11.13, 18.13, 8.67], "includesElement__en_allen": [11.13, 18.13, 8.67], "includesElement__metallic_radius": [115.0, 130.0], "includesElement__metallic_radius_c12": [124.0, 53.0, 139.0], "includesElement__thermal_conductivity": [90.9, 0.026, 173.0], "includesElement__vdw_radius_batsanov": [200.0, 160.0, 210.0], "includesElement__c6": [373.0, 24.2], "includesElement__gas_basicity": [714.1, 318.7], "includesElement__proton_affinity": [737.0, 342.2], "includesElement__vdw_radius_dreiding": [366.21], "includesElement__vdw_radius_bondi": [155.0], "includesElement__vdw_radius_rt": [164.0], "formula": ["N4Ni8W12"], "spacegroup": ["213"], "thermalConductivity": [5.85166], "icsd": ["86170"], "band_gap": [0.0], "density": [15.52516], "density_atomic": [12.17384], "deprecated": [false], "efermi": [7.798316], "energy_above_hull": [0.003388264], "energy_per_atom": [-31.37263], "formation_energy_per_atom": [-0.1733682], "is_gap_direct": [false], "is_magnetic": [false], "is_metal": [true], "is_stable": [false], "nelements": [3], "nsites": [24], "num_magnetic_sites": [0], "num_unique_magnetic_sites": [0], "theoretical": [false], "total_magnetization": [4e-07], "total_magnetization_normalized_formula_units": [1e-07], "total_magnetization_normalized_vol": [1.369056e-09], "uncorrected_energy_per_atom": [-31.37263], "volume": [292.1721]}