{"includesElement": ["", "O", "La", "Hf"], "includesElement___series_id": [1, 9, 8], "includesElement__abundance_crust": [461000.0, 39.0, 3.0], "includesElement__atomic_number": [8, 57, 72], "includesElement__atomic_radius": [60.0, 195.0, 155.0], "includesElement__atomic_radius_rahm": [171.0, 284.0, 264.0], "includesElement__atomic_volume": [14.0, 22.5, 13.6], "includesElement__atomic_weight": [15.999, 138.9055, 178.49], "includesElement__covalent_radius_cordero": [66.0, 207.0, 175.0], "includesElement__covalent_radius_pyykko": [63.0, 180.0, 152.0], "includesElement__covalent_radius_pyykko_double": [57.0, 139.0, 128.0], "includesElement__covalent_radius_pyykko_triple": [53.0, 139.0, 122.0], "includesElement__density": [0.001308, 6.15, 13.3], "includesElement__dipole_polarizability": [5.3, 215.0, 103.0], "includesElement__dipole_polarizability_unc": [0.2, 20.0, 6.0], "includesElement__discovery_year": [1774, 1839, 1923], "includesElement__electron_affinity": [1.461113, 0.47, 0.014], "includesElement__electronegativity_allred-rochow": [0.001146384, 9.259259e-05, 0.00013634], "includesElement__electronegativity_cottrell-sutton": [0.2687419, 0.1290994, 0.1439572], "includesElement__electronegativity_ghosh": [0.304575, 0.163142, 0.229987], "includesElement__electronegativity_gordy": [0.07222222, 0.01666667, 0.02072368], "includesElement__electronegativity_mulliken": [7.539584, 3.02345, 3.419535], "includesElement__electronegativity_nagle": [1.042218, 0.240747, 0.3386421], "includesElement__electronegativity_pauling": [3.44, 1.1, 1.3], "includesElement__electronegativity_sanderson": [0.9416494, 0.3946505, 0.7352125], "includesElement__en_ghosh": [0.304575, 0.163142, 0.229987], "includesElement__en_pauling": [3.44, 1.1, 1.3], "includesElement__glawe_number": [97, 32, 50], "includesElement__group_id": [16, 3, 4], "includesElement__heat_of_formation": [249.229, 431.0, 618.4], "includesElement__is_radioactive": [false], "includesElement__lattice_constant": [6.83, 3.75, 3.2], "includesElement__mendeleev_number": [99, 13, 45], "includesElement__molar_heat_capacity": [29.378, 27.11, 25.73], "includesElement__period": [2, 6], "includesElement__pettifor_number": [101, 33, 50], "includesElement__specific_heat_capacity": [0.918, 0.195, 0.144], "includesElement__vdw_radius": [152.0, 243.0, 223.0], "includesElement__vdw_radius_alvarez": [150.0, 298.0, 263.0], "includesElement__vdw_radius_mm3": [182.0, 278.0, 253.0], "includesElement__vdw_radius_uff": [350.0, 352.2, 314.1], "includesElement__abundance_sea": [857000.0, 3.4e-06, 7e-06], "includesElement__c6_gb": [16.7, 3730.0, 1040.0], "includesElement__covalent_radius_bragg": [65.0], "includesElement__electronegativity_allen": [21.36, 6.83], "includesElement__en_allen": [21.36, 6.83], "includesElement__thermal_conductivity": [0.027, 13.4, 23.0], "includesElement__vdw_radius_batsanov": [155.0, 250.0, 225.0], "includesElement__c6": [15.6], "includesElement__vdw_radius_dreiding": [340.46], "includesElement__gas_basicity": [459.6, 991.9], "includesElement__proton_affinity": [485.2, 1013.0], "includesElement__vdw_radius_bondi": [152.0], "includesElement__vdw_radius_rt": [158.0], "includesElement__evaporation_heat": [402.0, 575.0], "includesElement__fusion_heat": [8.5, 25.1], "includesElement__atomic_weight_uncertainty": [7e-05, 0.02], "includesElement__metallic_radius": [169.0, 144.0], "includesElement__metallic_radius_c12": [187.0, 159.0], "formula": ["Hf4La4O14"], "spacegroup": ["227"], "thermalConductivity": [5.26227], "icsd": ["153815"], "band_gap": [4.2328], "density": [8.010616], "density_atomic": [14.07301], "deprecated": [false], "efermi": [4.151237], "energy_above_hull": [0.0], "energy_per_atom": [-21.34888], "formation_energy_per_atom": [-3.93825], "homogeneous_poisson": [0.264], "is_gap_direct": [false], "is_magnetic": [false], "is_metal": [false], "is_stable": [true], "nelements": [3], "nsites": [22], "num_magnetic_sites": [0], "num_unique_magnetic_sites": [0], "theoretical": [true], "total_magnetization": [0.0], "total_magnetization_normalized_formula_units": [0.0], "total_magnetization_normalized_vol": [0.0], "uncorrected_energy_per_atom": [-21.34888], "universal_anisotropy": [0.016], "volume": [309.6063], "cbm": [8.36], "e_electronic": [4.595957], "e_ionic": [26.18984], "e_total": [30.78579], "equilibrium_reaction_energy_per_atom": [-0.1027918], "n": [2.143818], "vbm": [4.1272]}