{"includesElement": ["", "Be", "W"], "includesElement___series_id": [4, 8], "includesElement__abundance_crust": [2.8, 1.25], "includesElement__atomic_number": [4, 74], "includesElement__atomic_radius": [105.0, 135.0], "includesElement__atomic_radius_rahm": [219.0, 253.0], "includesElement__atomic_volume": [5.0, 9.53], "includesElement__atomic_weight": [9.012183, 183.84], "includesElement__covalent_radius_cordero": [96.0, 162.0], "includesElement__covalent_radius_pyykko": [102.0, 137.0], "includesElement__covalent_radius_pyykko_double": [90.0, 120.0], "includesElement__covalent_radius_pyykko_triple": [85.0, 115.0], "includesElement__density": [1.85, 19.3], "includesElement__dipole_polarizability": [37.74, 68.0], "includesElement__dipole_polarizability_unc": [0.03, 15.0], "includesElement__discovery_year": [1798, 1783], "includesElement__electron_affinity": [-2.4, 0.81626], "includesElement__electronegativity_allred-rochow": [0.0001874279, 0.0001838137], "includesElement__electronegativity_cottrell-sutton": [0.1382666, 0.1586899], "includesElement__electronegativity_ghosh": [0.144986, 0.2390504], "includesElement__electronegativity_gordy": [0.01911765, 0.02518248], "includesElement__electronegativity_mulliken": [3.461349, 4.340145], "includesElement__electronegativity_nagle": [0.3756148, 0.4451921], "includesElement__electronegativity_pauling": [1.57, 1.7], "includesElement__electronegativity_sanderson": [0.1268473, 1.019283], "includesElement__en_ghosh": [0.144986, 0.2390504], "includesElement__en_pauling": [1.57, 1.7], "includesElement__evaporation_heat": [309.0, 824.0], "includesElement__fusion_heat": [12.21, 35.0], "includesElement__glawe_number": [77, 57], "includesElement__group_id": [2, 6], "includesElement__heat_of_formation": [324.0, 851.0], "includesElement__is_radioactive": [false], "includesElement__lattice_constant": [2.29, 3.16], "includesElement__mendeleev_number": [75, 53], "includesElement__molar_heat_capacity": [16.443, 24.27], "includesElement__period": [2, 6], "includesElement__pettifor_number": [77, 56], "includesElement__specific_heat_capacity": [1.825, 0.132], "includesElement__vdw_radius": [153.0, 218.0], "includesElement__vdw_radius_alvarez": [198.0, 257.0], "includesElement__vdw_radius_mm3": [223.0, 239.0], "includesElement__vdw_radius_uff": [274.5, 309.6], "includesElement__abundance_sea": [5.6e-06, 0.0001], "includesElement__atomic_weight_uncertainty": [5e-07, 0.01], "includesElement__c6_gb": [214.0, 757.0], "includesElement__covalent_radius_bragg": [115.0], "includesElement__electronegativity_allen": [9.323, 8.67], "includesElement__en_allen": [9.323, 8.67], "includesElement__metallic_radius": [89.0, 130.0], "includesElement__metallic_radius_c12": [112.0, 139.0], "includesElement__thermal_conductivity": [201.0, 173.0], "includesElement__vdw_radius_batsanov": [190.0, 210.0], "includesElement__c6": [227.0], "includesElement__is_monoisotopic": [true], "includesElement__vdw_radius_truhlar": [153.0], "formula": ["Be8W4"], "spacegroup": ["194"], "thermalConductivity": [18.0705], "icsd": ["58754"], "band_gap": [0.0], "density": [10.728], "density_atomic": [10.41523], "deprecated": [false], "efermi": [5.325933], "energy_above_hull": [0.0], "energy_per_atom": [-7.115911], "formation_energy_per_atom": [-0.303592], "homogeneous_poisson": [0.193], "is_gap_direct": [false], "is_magnetic": [false], "is_metal": [true], "is_stable": [true], "nelements": [2], "nsites": [12], "num_magnetic_sites": [0], "num_unique_magnetic_sites": [0], "theoretical": [false], "total_magnetization": [0.0], "total_magnetization_normalized_formula_units": [0.0], "total_magnetization_normalized_vol": [0.0], "uncorrected_energy_per_atom": [-20.32764], "universal_anisotropy": [0.018], "volume": [124.9828], "equilibrium_reaction_energy_per_atom": [-0.2283997]}