{"includesElement": ["", "Sb", "S", "Ir"], "includesElement___series_id": [5, 1, 8], "includesElement__abundance_crust": [0.2, 350.0, 0.001], "includesElement__atomic_number": [51, 16, 77], "includesElement__atomic_radius": [145.0, 100.0, 135.0], "includesElement__atomic_radius_rahm": [246.0, 214.0, 240.0], "includesElement__atomic_volume": [18.4, 15.5, 8.54], "includesElement__atomic_weight": [121.76, 32.06, 192.217], "includesElement__covalent_radius_cordero": [139.0, 105.0, 141.0], "includesElement__covalent_radius_pyykko": [140.0, 103.0, 122.0], "includesElement__covalent_radius_pyykko_double": [133.0, 94.0, 115.0], "includesElement__covalent_radius_pyykko_triple": [127.0, 95.0, 107.0], "includesElement__density": [6.68, 2.07, 22.5622], "includesElement__dipole_polarizability": [43.0, 19.4, 54.0], "includesElement__dipole_polarizability_unc": [2.0, 0.1, 7.0], "includesElement__electron_affinity": [1.046, 2.077104, 1.5638], "includesElement__electronegativity_allred-rochow": [0.0003214286, 0.0005137148, 0.0002620263], "includesElement__electronegativity_cottrell-sutton": [0.212132, 0.2300274, 0.1787938], "includesElement__electronegativity_ghosh": [0.1918774, 0.23596, 0.25106], "includesElement__electronegativity_gordy": [0.045, 0.05291262, 0.03196721], "includesElement__electronegativity_mulliken": [4.827195, 6.218557, 5.26541], "includesElement__electronegativity_nagle": [0.4880907, 0.6762644, 0.5503212], "includesElement__electronegativity_pauling": [2.05, 2.58, 2.2], "includesElement__electronegativity_sanderson": [0.7762722, 0.6397251, 1.475998], "includesElement__en_ghosh": [0.1918774, 0.23596, 0.25106], "includesElement__en_pauling": [2.05, 2.58, 2.2], "includesElement__evaporation_heat": [195.2, 10.5, 604.0], "includesElement__fusion_heat": [20.08, 1.23, 27.61], "includesElement__glawe_number": [91, 96, 62], "includesElement__group_id": [15, 16, 9], "includesElement__heat_of_formation": [264.4, 277.17, 669.0], "includesElement__is_radioactive": [false], "includesElement__lattice_constant": [4.51, 10.47, 3.84], "includesElement__mendeleev_number": [96, 100, 65], "includesElement__molar_heat_capacity": [25.23, 22.7, 25.1], "includesElement__period": [5, 3, 6], "includesElement__pettifor_number": [88, 94, 65], "includesElement__specific_heat_capacity": [0.207, 0.708, 0.131], "includesElement__vdw_radius": [206.0, 180.0, 213.0], "includesElement__vdw_radius_alvarez": [247.0, 189.0, 241.0], "includesElement__vdw_radius_mm3": [252.0, 215.0, 236.0], "includesElement__vdw_radius_uff": [442.0, 403.5, 284.0], "includesElement__abundance_sea": [0.00024, 905.0], "includesElement__atomic_weight_uncertainty": [0.001, 0.003], "includesElement__c6_gb": [504.0, 140.0, 522.0], "includesElement__covalent_radius_bragg": [140.0, 102.0], "includesElement__electronegativity_allen": [11.74, 15.31, 9.96], "includesElement__en_allen": [11.74, 15.31, 9.96], "includesElement__metallic_radius": [139.0, 104.0, 127.0], "includesElement__metallic_radius_c12": [166.0, 127.0, 136.0], "includesElement__thermal_conductivity": [24.43, 0.27, 147.0], "includesElement__vdw_radius_batsanov": [220.0, 180.0, 200.0], "includesElement__c6": [492.0, 134.0], "includesElement__vdw_radius_dreiding": [435.0, 403.0], "includesElement__vdw_radius_truhlar": [206.0], "includesElement__gas_basicity": [640.2], "includesElement__proton_affinity": [664.3], "includesElement__vdw_radius_bondi": [180.0], "includesElement__vdw_radius_rt": [181.0], "includesElement__discovery_year": [1804], "formula": ["Ir4S4Sb4"], "spacegroup": ["29"], "thermalConductivity": [5.07883], "icsd": ["74630"], "band_gap": [1.0701], "density": [10.24002], "density_atomic": [18.70491], "deprecated": [false], "efermi": [7.997332], "energy_above_hull": [0.002750797], "energy_per_atom": [-29.29047], "formation_energy_per_atom": [-0.5902513], "homogeneous_poisson": [0.244], "is_gap_direct": [false], "is_magnetic": [false], "is_metal": [false], "is_stable": [false], "nelements": [3], "nsites": [12], "num_magnetic_sites": [0], "num_unique_magnetic_sites": [0], "theoretical": [false], "total_magnetization": [0.0], "total_magnetization_normalized_formula_units": [0.0], "total_magnetization_normalized_vol": [0.0], "uncorrected_energy_per_atom": [-29.29047], "universal_anisotropy": [0.213], "volume": [224.4589], "cbm": [8.9392], "e_electronic": [16.45281], "e_ionic": [4.969535], "e_total": [21.42234], "n": [4.056206], "vbm": [7.8691], "e_ij_max": [0.16588]}