{"includesElement": ["", "Sc", "B"], "includesElement___series_id": [8, 5], "includesElement__abundance_crust": [22.0, 10.0], "includesElement__atomic_number": [21, 5], "includesElement__atomic_radius": [160.0, 85.0], "includesElement__atomic_radius_rahm": [263.0, 205.0], "includesElement__atomic_volume": [15.0, 4.6], "includesElement__atomic_weight": [44.95591, 10.81], "includesElement__covalent_radius_cordero": [170.0, 84.0], "includesElement__covalent_radius_pyykko": [148.0, 85.0], "includesElement__covalent_radius_pyykko_double": [116.0, 78.0], "includesElement__covalent_radius_pyykko_triple": [114.0, 73.0], "includesElement__density": [2.99, 2.34], "includesElement__dipole_polarizability": [97.0, 20.5], "includesElement__dipole_polarizability_unc": [10.0, 0.1], "includesElement__discovery_year": [1879, 1808], "includesElement__electron_affinity": [0.188, 0.279723], "includesElement__electronegativity_allred-rochow": [0.0001369613, 0.0003598616], "includesElement__electronegativity_cottrell-sutton": [0.1423737, 0.1748949], "includesElement__electronegativity_ghosh": [0.1193833, 0.184886], "includesElement__electronegativity_gordy": [0.02027027, 0.03058824], "includesElement__electronegativity_mulliken": [3.374745, 4.288871], "includesElement__electronegativity_nagle": [0.3138941, 0.5269739], "includesElement__electronegativity_pauling": [1.36, 2.04], "includesElement__electronegativity_sanderson": [0.3038674, 0.2546274], "includesElement__en_ghosh": [0.1193833, 0.184886], "includesElement__en_pauling": [1.36, 2.04], "includesElement__evaporation_heat": [332.7, 504.5], "includesElement__fusion_heat": [15.8, 23.6], "includesElement__glawe_number": [48, 86], "includesElement__group_id": [3, 13], "includesElement__heat_of_formation": [377.8, 565.0], "includesElement__is_radioactive": [false], "includesElement__lattice_constant": [3.31, 8.73], "includesElement__mendeleev_number": [11, 81], "includesElement__molar_heat_capacity": [25.52, 11.087], "includesElement__period": [4, 2], "includesElement__pettifor_number": [20, 86], "includesElement__specific_heat_capacity": [0.568, 1.026], "includesElement__vdw_radius": [215.0, 192.0], "includesElement__vdw_radius_alvarez": [258.0, 191.0], "includesElement__vdw_radius_mm3": [261.0, 215.0], "includesElement__vdw_radius_uff": [329.5, 408.3], "includesElement__abundance_sea": [6e-07, 4.44], "includesElement__atomic_weight_uncertainty": [5e-06], "includesElement__c6_gb": [1570.0, 99.2], "includesElement__electronegativity_allen": [7.042, 12.13], "includesElement__en_allen": [7.042, 12.13], "includesElement__metallic_radius": [144.0, 80.0], "includesElement__metallic_radius_c12": [162.0, 98.0], "includesElement__thermal_conductivity": [15.8, 27.4], "includesElement__vdw_radius_batsanov": [230.0, 180.0], "includesElement__c6": [1383.0, 99.5], "includesElement__is_monoisotopic": [true], "includesElement__gas_basicity": [892.0], "includesElement__proton_affinity": [914.0], "includesElement__vdw_radius_dreiding": [402.0], "includesElement__vdw_radius_truhlar": [192.0], "formula": ["B2Sc1"], "spacegroup": ["191"], "thermalConductivity": [90.2972], "icsd": ["165123"], "band_gap": [0.0], "density": [3.649688], "density_atomic": [10.09723], "deprecated": [false], "efermi": [6.068094], "energy_above_hull": [0.0], "energy_per_atom": [-9.583862], "formation_energy_per_atom": [-0.8867964], "homogeneous_poisson": [0.118], "is_gap_direct": [false], "is_magnetic": [false], "is_metal": [true], "is_stable": [true], "nelements": [2], "nsites": [3], "num_magnetic_sites": [0], "num_unique_magnetic_sites": [0], "theoretical": [false], "total_magnetization": [4e-07], "total_magnetization_normalized_formula_units": [4e-07], "total_magnetization_normalized_vol": [1.320494e-08], "uncorrected_energy_per_atom": [-9.583862], "universal_anisotropy": [0.085], "volume": [30.29169], "equilibrium_reaction_energy_per_atom": [-0.7282569]}