{"includesElement": ["", "Ca", "Be"], "includesElement___series_id": [4], "includesElement__abundance_crust": [41500.0, 2.8], "includesElement__atomic_number": [20, 4], "includesElement__atomic_radius": [180.0, 105.0], "includesElement__atomic_radius_rahm": [270.0, 219.0], "includesElement__atomic_volume": [29.9, 5.0], "includesElement__atomic_weight": [40.078, 9.012183], "includesElement__covalent_radius_cordero": [176.0, 96.0], "includesElement__covalent_radius_pyykko": [171.0, 102.0], "includesElement__covalent_radius_pyykko_double": [147.0, 90.0], "includesElement__covalent_radius_pyykko_triple": [133.0, 85.0], "includesElement__density": [1.54, 1.85], "includesElement__dipole_polarizability": [160.8, 37.74], "includesElement__dipole_polarizability_unc": [4.0, 0.03], "includesElement__discovery_year": [1808, 1798], "includesElement__electron_affinity": [0.02455, -2.4], "includesElement__electronegativity_allred-rochow": [9.746589e-05, 0.0001874279], "includesElement__electronegativity_cottrell-sutton": [0.1290994, 0.1382666], "includesElement__electronegativity_ghosh": [0.1154119, 0.144986], "includesElement__electronegativity_gordy": [0.01666667, 0.01911765], "includesElement__electronegativity_mulliken": [3.068853, 3.461349], "includesElement__electronegativity_nagle": [0.2316939, 0.3756148], "includesElement__electronegativity_pauling": [1.0, 1.57], "includesElement__electronegativity_sanderson": [0.1901577, 0.1268473], "includesElement__en_ghosh": [0.1154119, 0.144986], "includesElement__en_pauling": [1.0, 1.57], "includesElement__evaporation_heat": [153.6, 309.0], "includesElement__fusion_heat": [9.2, 12.21], "includesElement__glawe_number": [16, 77], "includesElement__group_id": [2], "includesElement__heat_of_formation": [177.8, 324.0], "includesElement__is_radioactive": [false], "includesElement__lattice_constant": [5.58, 2.29], "includesElement__mendeleev_number": [7, 75], "includesElement__molar_heat_capacity": [25.929, 16.443], "includesElement__period": [4, 2], "includesElement__pettifor_number": [16, 77], "includesElement__specific_heat_capacity": [0.647, 1.825], "includesElement__vdw_radius": [231.0, 153.0], "includesElement__vdw_radius_alvarez": [262.0, 198.0], "includesElement__vdw_radius_mm3": [281.0, 223.0], "includesElement__vdw_radius_uff": [339.9, 274.5], "includesElement__abundance_sea": [412.0, 5.6e-06], "includesElement__atomic_weight_uncertainty": [0.004, 5e-07], "includesElement__c6_gb": [2230.0, 214.0], "includesElement__covalent_radius_bragg": [170.0, 115.0], "includesElement__electronegativity_allen": [6.113, 9.323], "includesElement__en_allen": [6.113, 9.323], "includesElement__metallic_radius": [174.0, 89.0], "includesElement__metallic_radius_c12": [197.0, 112.0], "includesElement__vdw_radius_batsanov": [240.0, 190.0], "includesElement__c6": [2163.0, 227.0], "includesElement__vdw_radius_truhlar": [231.0, 153.0], "includesElement__thermal_conductivity": [201.0], "includesElement__is_monoisotopic": [true], "formula": ["Be26Ca2"], "spacegroup": ["226"], "thermalConductivity": [17.9306], "icsd": ["58692"], "band_gap": [0.0], "density": [1.930985], "density_atomic": [9.658176], "deprecated": [false], "efermi": [3.908023], "energy_above_hull": [0.0], "energy_per_atom": [-3.713545], "formation_energy_per_atom": [-0.09797635], "is_gap_direct": [false], "is_magnetic": [false], "is_metal": [true], "is_stable": [true], "nelements": [2], "nsites": [28], "num_magnetic_sites": [0], "num_unique_magnetic_sites": [0], "theoretical": [false], "total_magnetization": [1e-07], "total_magnetization_normalized_formula_units": [5e-08], "total_magnetization_normalized_vol": [3.697829e-10], "uncorrected_energy_per_atom": [-4.634003], "volume": [270.4289], "equilibrium_reaction_energy_per_atom": [-0.09797635]}