{"includesElement": ["", "Be", "Re"], "includesElement___series_id": [4, 8], "includesElement__abundance_crust": [2.8, 0.0007], "includesElement__atomic_number": [4, 75], "includesElement__atomic_radius": [105.0, 135.0], "includesElement__atomic_radius_rahm": [219.0, 249.0], "includesElement__atomic_volume": [5.0, 8.85], "includesElement__atomic_weight": [9.012183, 186.207], "includesElement__covalent_radius_cordero": [96.0, 151.0], "includesElement__covalent_radius_pyykko": [102.0, 131.0], "includesElement__covalent_radius_pyykko_double": [90.0, 119.0], "includesElement__covalent_radius_pyykko_triple": [85.0, 110.0], "includesElement__density": [1.85, 20.8], "includesElement__dipole_polarizability": [37.74, 62.0], "includesElement__dipole_polarizability_unc": [0.03, 3.0], "includesElement__discovery_year": [1798, 1925], "includesElement__electron_affinity": [-2.4, 0.15], "includesElement__electronegativity_allred-rochow": [0.0001874279, 0.000209778], "includesElement__electronegativity_cottrell-sutton": [0.1382666, 0.1657737], "includesElement__electronegativity_ghosh": [0.144986, 0.2435164], "includesElement__electronegativity_gordy": [0.01911765, 0.02748092], "includesElement__electronegativity_mulliken": [3.461349, 3.99176], "includesElement__electronegativity_nagle": [0.3756148, 0.4833208], "includesElement__electronegativity_pauling": [1.57, 1.9], "includesElement__electronegativity_sanderson": [0.1268473, 1.174592], "includesElement__en_ghosh": [0.144986, 0.2435164], "includesElement__en_pauling": [1.57, 1.9], "includesElement__evaporation_heat": [309.0, 704.0], "includesElement__fusion_heat": [12.21, 34.0], "includesElement__glawe_number": [77, 58], "includesElement__group_id": [2, 7], "includesElement__heat_of_formation": [324.0, 774.0], "includesElement__is_radioactive": [false], "includesElement__lattice_constant": [2.29, 2.76], "includesElement__mendeleev_number": [75, 57], "includesElement__molar_heat_capacity": [16.443, 25.48], "includesElement__period": [2, 6], "includesElement__pettifor_number": [77, 59], "includesElement__specific_heat_capacity": [1.825, 0.137], "includesElement__vdw_radius": [153.0, 216.0], "includesElement__vdw_radius_alvarez": [198.0, 249.0], "includesElement__vdw_radius_mm3": [223.0, 237.0], "includesElement__vdw_radius_uff": [274.5, 295.4], "includesElement__abundance_sea": [5.6e-06, 4e-06], "includesElement__atomic_weight_uncertainty": [5e-07, 0.001], "includesElement__c6_gb": [214.0, 663.0], "includesElement__covalent_radius_bragg": [115.0], "includesElement__electronegativity_allen": [9.323, 9.46], "includesElement__en_allen": [9.323, 9.46], "includesElement__metallic_radius": [89.0, 128.0], "includesElement__metallic_radius_c12": [112.0, 137.0], "includesElement__thermal_conductivity": [201.0, 48.0], "includesElement__vdw_radius_batsanov": [190.0, 205.0], "includesElement__c6": [227.0], "includesElement__is_monoisotopic": [true], "includesElement__vdw_radius_truhlar": [153.0], "formula": ["Be8Re4"], "spacegroup": ["194"], "thermalConductivity": [16.0888], "icsd": ["58732"], "band_gap": [0.0], "density": [11.55972], "density_atomic": [9.779193], "deprecated": [false], "efermi": [6.565377], "energy_above_hull": [0.0], "energy_per_atom": [-7.021866], "formation_energy_per_atom": [-0.3795529], "homogeneous_poisson": [0.21], "is_gap_direct": [false], "is_magnetic": [false], "is_metal": [true], "is_stable": [true], "nelements": [2], "nsites": [12], "num_magnetic_sites": [0], "num_unique_magnetic_sites": [0], "theoretical": [false], "total_magnetization": [6e-07], "total_magnetization_normalized_formula_units": [1.5e-07], "total_magnetization_normalized_vol": [5.112896e-09], "uncorrected_energy_per_atom": [-20.7743], "universal_anisotropy": [0.002], "volume": [117.3503], "equilibrium_reaction_energy_per_atom": [-0.3344137]}