{"includesElement": ["", "As", "Pa"], "includesElement___series_id": [5, 10], "includesElement__abundance_crust": [1.8, 1.4e-06], "includesElement__atomic_number": [33, 91], "includesElement__atomic_radius": [115.0, 180.0], "includesElement__atomic_radius_rahm": [231.0, 285.0], "includesElement__atomic_volume": [13.1, 15.0], "includesElement__atomic_weight": [74.92159, 231.0359], "includesElement__covalent_radius_cordero": [119.0, 200.0], "includesElement__covalent_radius_pyykko": [121.0, 169.0], "includesElement__covalent_radius_pyykko_double": [114.0, 138.0], "includesElement__covalent_radius_pyykko_triple": [106.0, 129.0], "includesElement__density": [5.75, 15.4], "includesElement__dipole_polarizability": [30.0, 154.0], "includesElement__dipole_polarizability_unc": [1.0, 20.0], "includesElement__electron_affinity": [0.804], "includesElement__electronegativity_allred-rochow": [0.0004302985, 0.0001050383], "includesElement__electronegativity_cottrell-sutton": [0.22818, 0.1332347], "includesElement__electronegativity_ghosh": [0.2068208, 0.12149], "includesElement__electronegativity_gordy": [0.05206612, 0.01775148], "includesElement__electronegativity_mulliken": [5.2965, 2.945], "includesElement__electronegativity_nagle": [0.5503212, 0.3190189], "includesElement__electronegativity_pauling": [2.18, 1.5], "includesElement__electronegativity_sanderson": [0.8253373, 0.6230657], "includesElement__en_ghosh": [0.2068208, 0.12149], "includesElement__en_pauling": [2.18, 1.5], "includesElement__evaporation_heat": [32.4, 481.2], "includesElement__glawe_number": [90, 35], "includesElement__group_id": [15], "includesElement__heat_of_formation": [302.5, 563.0], "includesElement__is_radioactive": [false, true], "includesElement__lattice_constant": [4.13, 3.92], "includesElement__mendeleev_number": [95, 18], "includesElement__molar_heat_capacity": [24.64], "includesElement__period": [4, 7], "includesElement__pettifor_number": [89, 46], "includesElement__specific_heat_capacity": [0.329], "includesElement__vdw_radius": [185.0, 243.0], "includesElement__vdw_radius_alvarez": [188.0, 288.0], "includesElement__vdw_radius_mm3": [236.0, 264.0], "includesElement__vdw_radius_uff": [423.0, 342.4], "includesElement__abundance_sea": [0.0037, 5e-11], "includesElement__atomic_weight_uncertainty": [6e-06, 2e-05], "includesElement__c6_gb": [260.0], "includesElement__covalent_radius_bragg": [126.0], "includesElement__electronegativity_allen": [13.08], "includesElement__en_allen": [13.08], "includesElement__metallic_radius": [121.0], "includesElement__metallic_radius_c12": [148.0], "includesElement__vdw_radius_batsanov": [205.0], "includesElement__c6": [246.0], "includesElement__is_monoisotopic": [true], "includesElement__vdw_radius_dreiding": [415.0], "includesElement__vdw_radius_bondi": [185.0], "includesElement__discovery_year": [1917], "includesElement__fusion_heat": [16.7], "formula": ["As8Pa6"], "spacegroup": ["220"], "thermalConductivity": [2.90416], "icsd": ["611159"], "band_gap": [0.0], "density": [10.37344], "density_atomic": [22.70321], "deprecated": [false], "efermi": [9.2649], "energy_above_hull": [0.0], "energy_per_atom": [-42.53129], "formation_energy_per_atom": [-1.188698], "is_gap_direct": [false], "is_magnetic": [true], "is_metal": [true], "is_stable": [true], "nelements": [2], "nsites": [14], "num_magnetic_sites": [6], "num_unique_magnetic_sites": [1], "theoretical": [false], "total_magnetization": [5.809794], "total_magnetization_normalized_formula_units": [2.904897], "total_magnetization_normalized_vol": [0.0182787], "uncorrected_energy_per_atom": [-42.53129], "volume": [317.845], "equilibrium_reaction_energy_per_atom": [-0.04166184]}