{"includesElement": ["", "Tb", "Ru", "B"], "includesElement___series_id": [9, 8, 5], "includesElement__abundance_crust": [1.2, 0.001, 10.0], "includesElement__atomic_number": [65, 44, 5], "includesElement__atomic_radius": [175.0, 130.0, 85.0], "includesElement__atomic_radius_rahm": [276.0, 237.0, 205.0], "includesElement__atomic_volume": [19.2, 8.3, 4.6], "includesElement__atomic_weight": [158.9254, 101.07, 10.81], "includesElement__covalent_radius_cordero": [194.0, 146.0, 84.0], "includesElement__covalent_radius_pyykko": [168.0, 125.0, 85.0], "includesElement__covalent_radius_pyykko_double": [135.0, 114.0, 78.0], "includesElement__density": [8.23, 12.1, 2.34], "includesElement__dipole_polarizability": [170.0, 72.0, 20.5], "includesElement__dipole_polarizability_unc": [20.0, 10.0, 0.1], "includesElement__discovery_year": [1843, 1844, 1808], "includesElement__electron_affinity": [1.165, 1.05, 0.279723], "includesElement__electronegativity_allred-rochow": [0.0001009779, 0.000208, 0.0003598616], "includesElement__electronegativity_cottrell-sutton": [0.130247, 0.1612452, 0.1748949], "includesElement__electronegativity_ghosh": [0.198863, 0.1376494, 0.184886], "includesElement__electronegativity_gordy": [0.01696429, 0.026, 0.03058824], "includesElement__electronegativity_mulliken": [3.5144, 4.20525, 4.288871], "includesElement__electronegativity_nagle": [0.4014652, 0.4807499, 0.5269739], "includesElement__electronegativity_sanderson": [0.5163695, 0.9579373, 0.2546274], "includesElement__en_ghosh": [0.198863, 0.1376494, 0.184886], "includesElement__evaporation_heat": [389.0, 504.5], "includesElement__glawe_number": [25, 61, 86], "includesElement__heat_of_formation": [388.7, 650.6, 565.0], "includesElement__is_radioactive": [false], "includesElement__lattice_constant": [3.6, 2.7, 8.73], "includesElement__mendeleev_number": [29, 60, 81], "includesElement__molar_heat_capacity": [28.91, 24.06, 11.087], "includesElement__period": [6, 5, 2], "includesElement__pettifor_number": [26, 63, 86], "includesElement__specific_heat_capacity": [0.182, 0.238, 1.026], "includesElement__vdw_radius": [233.0, 213.0, 192.0], "includesElement__vdw_radius_alvarez": [279.0, 246.0, 191.0], "includesElement__vdw_radius_mm3": [270.0, 234.0, 215.0], "includesElement__vdw_radius_uff": [345.1, 296.3, 408.3], "includesElement__abundance_sea": [1.4e-07, 7e-07, 4.44], "includesElement__atomic_weight_uncertainty": [2e-05, 0.02], "includesElement__c6_gb": [2590.0, 809.0, 99.2], "includesElement__thermal_conductivity": [11.1, 117.0, 27.4], "includesElement__is_monoisotopic": [true], "includesElement__covalent_radius_pyykko_triple": [103.0, 73.0], "includesElement__electronegativity_pauling": [2.2, 2.04], "includesElement__en_pauling": [2.2, 2.04], "includesElement__fusion_heat": [25.5, 23.6], "includesElement__group_id": [8, 13], "includesElement__electronegativity_allen": [9.1, 12.13], "includesElement__en_allen": [9.1, 12.13], "includesElement__metallic_radius": [125.0, 80.0], "includesElement__metallic_radius_c12": [134.0, 98.0], "includesElement__vdw_radius_batsanov": [205.0, 180.0], "includesElement__gas_basicity": [751.4], "includesElement__proton_affinity": [774.0], "includesElement__c6": [99.5], "includesElement__vdw_radius_dreiding": [402.0], "includesElement__vdw_radius_truhlar": [192.0], "formula": ["B2Ru3Tb1"], "spacegroup": ["191"], "thermalConductivity": [8.26671], "icsd": ["615370"], "band_gap": [0.0], "density": [10.21527], "density_atomic": [13.10616], "deprecated": [false], "efermi": [6.571068], "energy_above_hull": [0.0], "energy_per_atom": [-8.103941], "formation_energy_per_atom": [-0.4672984], "homogeneous_poisson": [0.296], "is_gap_direct": [false], "is_magnetic": [false], "is_metal": [true], "is_stable": [true], "nelements": [3], "nsites": [6], "num_magnetic_sites": [0], "num_unique_magnetic_sites": [0], "theoretical": [false], "total_magnetization": [9e-07], "total_magnetization_normalized_formula_units": [9e-07], "total_magnetization_normalized_vol": [1.1445e-08], "uncorrected_energy_per_atom": [-20.8786], "universal_anisotropy": [0.073], "volume": [78.63698], "equilibrium_reaction_energy_per_atom": [-0.02026303]}