{"includesElement": ["", "As", "S", "Co"], "includesElement___series_id": [5, 1, 8], "includesElement__abundance_crust": [1.8, 350.0, 25.0], "includesElement__atomic_number": [33, 16, 27], "includesElement__atomic_radius": [115.0, 100.0, 135.0], "includesElement__atomic_radius_rahm": [231.0, 214.0, 233.0], "includesElement__atomic_volume": [13.1, 15.5, 6.7], "includesElement__atomic_weight": [74.92159, 32.06, 58.93319], "includesElement__covalent_radius_cordero": [119.0, 105.0, 138.0], "includesElement__covalent_radius_pyykko": [121.0, 103.0, 111.0], "includesElement__covalent_radius_pyykko_double": [114.0, 94.0, 103.0], "includesElement__covalent_radius_pyykko_triple": [106.0, 95.0, 96.0], "includesElement__density": [5.75, 2.07, 8.86], "includesElement__dipole_polarizability": [30.0, 19.4, 55.0], "includesElement__dipole_polarizability_unc": [1.0, 0.1, 4.0], "includesElement__electron_affinity": [0.804, 2.077104, 0.6622565], "includesElement__electronegativity_allred-rochow": [0.0004302985, 0.0005137148, 0.0003165327], "includesElement__electronegativity_cottrell-sutton": [0.22818, 0.2300274, 0.1874437], "includesElement__electronegativity_ghosh": [0.2068208, 0.23596, 0.1432363], "includesElement__electronegativity_gordy": [0.05206612, 0.05291262, 0.03513514], "includesElement__electronegativity_mulliken": [5.2965, 6.218557, 4.271633], "includesElement__electronegativity_nagle": [0.5503212, 0.6762644, 0.5469655], "includesElement__electronegativity_pauling": [2.18, 2.58, 1.88], "includesElement__electronegativity_sanderson": [0.8253373, 0.6397251, 0.8832424], "includesElement__en_ghosh": [0.2068208, 0.23596, 0.1432363], "includesElement__en_pauling": [2.18, 2.58, 1.88], "includesElement__evaporation_heat": [32.4, 10.5, 389.1], "includesElement__glawe_number": [90, 96, 70], "includesElement__group_id": [15, 16, 9], "includesElement__heat_of_formation": [302.5, 277.17, 426.7], "includesElement__is_radioactive": [false], "includesElement__lattice_constant": [4.13, 10.47, 2.51], "includesElement__mendeleev_number": [95, 100, 63], "includesElement__molar_heat_capacity": [24.64, 22.7, 24.81], "includesElement__period": [4, 3], "includesElement__pettifor_number": [89, 94, 64], "includesElement__specific_heat_capacity": [0.329, 0.708, 0.421], "includesElement__vdw_radius": [185.0, 180.0, 200.0], "includesElement__vdw_radius_alvarez": [188.0, 189.0, 240.0], "includesElement__vdw_radius_mm3": [236.0, 215.0, 223.0], "includesElement__vdw_radius_uff": [423.0, 403.5, 287.2], "includesElement__abundance_sea": [0.0037, 905.0, 2e-05], "includesElement__atomic_weight_uncertainty": [6e-06, 4e-06], "includesElement__c6_gb": [260.0, 140.0, 461.0], "includesElement__covalent_radius_bragg": [126.0, 102.0, 137.0], "includesElement__electronegativity_allen": [13.08, 15.31, 10.86], "includesElement__en_allen": [13.08, 15.31, 10.86], "includesElement__metallic_radius": [121.0, 104.0, 116.0], "includesElement__metallic_radius_c12": [148.0, 127.0, 125.0], "includesElement__vdw_radius_batsanov": [205.0, 180.0, 200.0], "includesElement__c6": [246.0, 134.0, 408.0], "includesElement__is_monoisotopic": [true], "includesElement__vdw_radius_dreiding": [415.0, 403.0], "includesElement__vdw_radius_bondi": [185.0, 180.0], "includesElement__fusion_heat": [1.23, 15.48], "includesElement__thermal_conductivity": [0.27, 100.0], "includesElement__gas_basicity": [640.2, 719.8], "includesElement__proton_affinity": [664.3, 742.7], "includesElement__vdw_radius_rt": [181.0], "includesElement__discovery_year": [1739], "formula": ["As2Co2S2"], "spacegroup": ["31"], "thermalConductivity": [10.7794], "icsd": ["36395"], "band_gap": [0.0], "density": [6.258514], "density_atomic": [14.67421], "deprecated": [false], "efermi": [6.813236], "energy_above_hull": [0.0], "energy_per_atom": [-12.47257], "formation_energy_per_atom": [-0.4803135], "homogeneous_poisson": [0.217], "is_gap_direct": [false], "is_magnetic": [false], "is_metal": [true], "is_stable": [true], "nelements": [3], "nsites": [6], "num_magnetic_sites": [0], "num_unique_magnetic_sites": [0], "theoretical": [false], "total_magnetization": [0.0], "total_magnetization_normalized_formula_units": [0.0], "total_magnetization_normalized_vol": [0.0], "uncorrected_energy_per_atom": [-12.47257], "universal_anisotropy": [0.304], "volume": [88.04528], "equilibrium_reaction_energy_per_atom": [-0.07452101]}