{"includesElement": ["", "Al", "B", "Re"], "includesElement___series_id": [7, 5, 8], "includesElement__abundance_crust": [82300.0, 10.0, 0.0007], "includesElement__atomic_number": [13, 5, 75], "includesElement__atomic_radius": [125.0, 85.0, 135.0], "includesElement__atomic_radius_rahm": [239.0, 205.0, 249.0], "includesElement__atomic_volume": [10.0, 4.6, 8.85], "includesElement__atomic_weight": [26.98154, 10.81, 186.207], "includesElement__covalent_radius_cordero": [121.0, 84.0, 151.0], "includesElement__covalent_radius_pyykko": [126.0, 85.0, 131.0], "includesElement__covalent_radius_pyykko_double": [113.0, 78.0, 119.0], "includesElement__covalent_radius_pyykko_triple": [111.0, 73.0, 110.0], "includesElement__density": [2.7, 2.34, 20.8], "includesElement__dipole_polarizability": [57.8, 20.5, 62.0], "includesElement__dipole_polarizability_unc": [1.0, 0.1, 3.0], "includesElement__discovery_year": [1825, 1808, 1925], "includesElement__electron_affinity": [0.43283, 0.279723, 0.15], "includesElement__electronegativity_allred-rochow": [0.0002204586, 0.0003598616, 0.000209778], "includesElement__electronegativity_cottrell-sutton": [0.1666667, 0.1748949, 0.1657737], "includesElement__electronegativity_ghosh": [0.150078, 0.184886, 0.2435164], "includesElement__electronegativity_gordy": [0.02777778, 0.03058824, 0.02748092], "includesElement__electronegativity_mulliken": [3.209299, 4.288871, 3.99176], "includesElement__electronegativity_nagle": [0.3730192, 0.5269739, 0.4833208], "includesElement__electronegativity_pauling": [1.61, 2.04, 1.9], "includesElement__electronegativity_sanderson": [0.2360927, 0.2546274, 1.174592], "includesElement__en_ghosh": [0.150078, 0.184886, 0.2435164], "includesElement__en_pauling": [1.61, 2.04, 1.9], "includesElement__evaporation_heat": [284.1, 504.5, 704.0], "includesElement__fusion_heat": [10.75, 23.6, 34.0], "includesElement__glawe_number": [78, 86, 58], "includesElement__group_id": [13, 7], "includesElement__heat_of_formation": [330.9, 565.0, 774.0], "includesElement__is_radioactive": [false], "includesElement__lattice_constant": [4.05, 8.73, 2.76], "includesElement__mendeleev_number": [82, 81, 57], "includesElement__molar_heat_capacity": [24.2, 11.087, 25.48], "includesElement__period": [3, 2, 6], "includesElement__pettifor_number": [80, 86, 59], "includesElement__specific_heat_capacity": [0.897, 1.026, 0.137], "includesElement__vdw_radius": [184.0, 192.0, 216.0], "includesElement__vdw_radius_alvarez": [225.0, 191.0, 249.0], "includesElement__vdw_radius_mm3": [236.0, 215.0, 237.0], "includesElement__vdw_radius_uff": [449.9, 408.3, 295.4], "includesElement__abundance_sea": [0.002, 4.44, 4e-06], "includesElement__atomic_weight_uncertainty": [7e-07, 0.001], "includesElement__c6_gb": [520.0, 99.2, 663.0], "includesElement__covalent_radius_bragg": [135.0], "includesElement__electronegativity_allen": [9.539, 12.13, 9.46], "includesElement__en_allen": [9.539, 12.13, 9.46], "includesElement__metallic_radius": [125.0, 80.0, 128.0], "includesElement__metallic_radius_c12": [143.0, 98.0, 137.0], "includesElement__thermal_conductivity": [237.0, 27.4, 48.0], "includesElement__vdw_radius_batsanov": [210.0, 180.0, 205.0], "includesElement__c6": [528.0, 99.5], "includesElement__is_monoisotopic": [true], "includesElement__vdw_radius_dreiding": [439.0, 402.0], "includesElement__vdw_radius_truhlar": [184.0, 192.0], "formula": ["Al8B4Re12"], "spacegroup": ["227"], "thermalConductivity": [3.4084], "icsd": ["43842"], "band_gap": [0.0], "density": [13.30728], "density_atomic": [12.96498], "deprecated": [false], "efermi": [8.390189], "energy_above_hull": [0.5771359], "energy_per_atom": [-29.48062], "formation_energy_per_atom": [0.1931162], "is_gap_direct": [false], "is_magnetic": [false], "is_metal": [true], "is_stable": [false], "nelements": [3], "nsites": [24], "num_magnetic_sites": [0], "num_unique_magnetic_sites": [0], "theoretical": [false], "total_magnetization": [0.0722468], "total_magnetization_normalized_formula_units": [0.0180617], "total_magnetization_normalized_vol": [0.0002321857], "uncorrected_energy_per_atom": [-8.337462], "volume": [311.1596]}