{"includesElement": ["", "N", "In", "Dy"], "includesElement___series_id": [1, 7, 9], "includesElement__abundance_crust": [19.0, 0.25, 5.2], "includesElement__atomic_number": [7, 49, 66], "includesElement__atomic_radius": [65.0, 155.0, 175.0], "includesElement__atomic_radius_rahm": [179.0, 246.0, 275.0], "includesElement__atomic_volume": [17.3, 15.7, 19.0], "includesElement__atomic_weight": [14.007, 114.818, 162.5], "includesElement__covalent_radius_cordero": [71.0, 142.0, 192.0], "includesElement__covalent_radius_pyykko": [71.0, 142.0, 167.0], "includesElement__covalent_radius_pyykko_double": [60.0, 136.0, 133.0], "includesElement__covalent_radius_pyykko_triple": [54.0, 146.0], "includesElement__density": [0.001145, 7.31, 8.55], "includesElement__dipole_polarizability": [7.4, 65.0, 163.0], "includesElement__dipole_polarizability_unc": [0.2, 4.0, 15.0], "includesElement__discovery_year": [1772, 1863, 1886], "includesElement__electron_affinity": [-1.4, 0.3, 0.352], "includesElement__electronegativity_allred-rochow": [0.000773656, 0.0002479667, 0.0001021908], "includesElement__electronegativity_cottrell-sutton": [0.2343706, 0.1876467, 0.1306364], "includesElement__electronegativity_ghosh": [0.26493, 0.16423, 0.20333], "includesElement__electronegativity_gordy": [0.05492958, 0.03521127, 0.01706587], "includesElement__electronegativity_mulliken": [6.567065, 3.043178, 3.145525], "includesElement__electronegativity_nagle": [0.8774979, 0.3587038, 0.4191131], "includesElement__electronegativity_pauling": [3.04, 1.78, 1.22], "includesElement__electronegativity_sanderson": [0.577482, 0.7172747, 0.5297338], "includesElement__en_ghosh": [0.26493, 0.16423, 0.20333], "includesElement__en_pauling": [3.04, 1.78, 1.22], "includesElement__glawe_number": [88, 80, 24], "includesElement__group_id": [15, 13], "includesElement__heat_of_formation": [472.44, 243.0, 290.4], "includesElement__is_radioactive": [false], "includesElement__lattice_constant": [4.039, 4.59, 3.59], "includesElement__mendeleev_number": [93, 84, 31], "includesElement__molar_heat_capacity": [29.124, 26.74, 28.16], "includesElement__period": [2, 5, 6], "includesElement__pettifor_number": [100, 79, 25], "includesElement__specific_heat_capacity": [1.04, 0.233, 0.173], "includesElement__vdw_radius": [155.0, 193.0, 231.0], "includesElement__vdw_radius_alvarez": [166.0, 243.0, 287.0], "includesElement__vdw_radius_mm3": [193.0, 264.0, 290.0], "includesElement__vdw_radius_uff": [366.0, 446.3, 342.8], "includesElement__abundance_sea": [0.5, 0.02, 9.1e-07], "includesElement__c6_gb": [25.7, 643.0, 2430.0], "includesElement__covalent_radius_bragg": [65.0], "includesElement__electronegativity_allen": [18.13, 9.793], "includesElement__en_allen": [18.13, 9.793], "includesElement__metallic_radius_c12": [53.0, 158.0], "includesElement__thermal_conductivity": [0.026, 81.8, 10.7], "includesElement__vdw_radius_batsanov": [160.0, 220.0], "includesElement__c6": [24.2, 779.0], "includesElement__vdw_radius_dreiding": [366.21, 459.0], "includesElement__gas_basicity": [318.7], "includesElement__proton_affinity": [342.2], "includesElement__vdw_radius_bondi": [155.0, 193.0], "includesElement__vdw_radius_rt": [164.0], "includesElement__evaporation_heat": [225.1, 291.0], "includesElement__fusion_heat": [3.24], "includesElement__atomic_weight_uncertainty": [0.001], "includesElement__metallic_radius": [142.0], "formula": ["Dy3In1N1"], "spacegroup": ["221"], "thermalConductivity": [8.94321], "icsd": ["98504"], "band_gap": [0.0], "density": [9.300155], "density_atomic": [22.00891], "deprecated": [false], "efermi": [4.826043], "energy_above_hull": [0.0], "energy_per_atom": [-26.73381], "formation_energy_per_atom": [-1.203263], "is_gap_direct": [false], "is_magnetic": [false], "is_metal": [true], "is_stable": [true], "nelements": [3], "nsites": [5], "num_magnetic_sites": [0], "num_unique_magnetic_sites": [0], "theoretical": [false], "total_magnetization": [2.89e-05], "total_magnetization_normalized_formula_units": [2.89e-05], "total_magnetization_normalized_vol": [2.62621e-07], "uncorrected_energy_per_atom": [-26.73381], "volume": [110.0445], "equilibrium_reaction_energy_per_atom": [-0.1058502]}