{"includesElement": ["", "Ir", "Pa"], "includesElement___series_id": [8, 10], "includesElement__abundance_crust": [0.001, 1.4e-06], "includesElement__atomic_number": [77, 91], "includesElement__atomic_radius": [135.0, 180.0], "includesElement__atomic_radius_rahm": [240.0, 285.0], "includesElement__atomic_volume": [8.54, 15.0], "includesElement__atomic_weight": [192.217, 231.0359], "includesElement__covalent_radius_cordero": [141.0, 200.0], "includesElement__covalent_radius_pyykko": [122.0, 169.0], "includesElement__covalent_radius_pyykko_double": [115.0, 138.0], "includesElement__covalent_radius_pyykko_triple": [107.0, 129.0], "includesElement__density": [22.5622, 15.4], "includesElement__dipole_polarizability": [54.0, 154.0], "includesElement__dipole_polarizability_unc": [7.0, 20.0], "includesElement__discovery_year": [1804, 1917], "includesElement__electron_affinity": [1.5638], "includesElement__electronegativity_allred-rochow": [0.0002620263, 0.0001050383], "includesElement__electronegativity_cottrell-sutton": [0.1787938, 0.1332347], "includesElement__electronegativity_ghosh": [0.25106, 0.12149], "includesElement__electronegativity_gordy": [0.03196721, 0.01775148], "includesElement__electronegativity_mulliken": [5.26541, 2.945], "includesElement__electronegativity_nagle": [0.5503212, 0.3190189], "includesElement__electronegativity_pauling": [2.2, 1.5], "includesElement__electronegativity_sanderson": [1.475998, 0.6230657], "includesElement__en_ghosh": [0.25106, 0.12149], "includesElement__en_pauling": [2.2, 1.5], "includesElement__evaporation_heat": [604.0, 481.2], "includesElement__fusion_heat": [27.61, 16.7], "includesElement__glawe_number": [62, 35], "includesElement__group_id": [9], "includesElement__heat_of_formation": [669.0, 563.0], "includesElement__is_radioactive": [false, true], "includesElement__lattice_constant": [3.84, 3.92], "includesElement__mendeleev_number": [65, 18], "includesElement__molar_heat_capacity": [25.1], "includesElement__period": [6, 7], "includesElement__pettifor_number": [65, 46], "includesElement__specific_heat_capacity": [0.131], "includesElement__vdw_radius": [213.0, 243.0], "includesElement__vdw_radius_alvarez": [241.0, 288.0], "includesElement__vdw_radius_mm3": [236.0, 264.0], "includesElement__vdw_radius_uff": [284.0, 342.4], "includesElement__atomic_weight_uncertainty": [0.003, 2e-05], "includesElement__c6_gb": [522.0], "includesElement__electronegativity_allen": [9.96], "includesElement__en_allen": [9.96], "includesElement__metallic_radius": [127.0], "includesElement__metallic_radius_c12": [136.0], "includesElement__thermal_conductivity": [147.0], "includesElement__vdw_radius_batsanov": [200.0], "includesElement__abundance_sea": [5e-11], "includesElement__is_monoisotopic": [true], "formula": ["Ir3Pa1"], "spacegroup": ["221"], "thermalConductivity": [13.7575], "icsd": ["104537"], "band_gap": [0.0], "density": [19.90314], "density_atomic": [16.84653], "deprecated": [false], "efermi": [11.16724], "energy_above_hull": [0.0], "energy_per_atom": [-59.40802], "formation_energy_per_atom": [-0.9244997], "homogeneous_poisson": [0.284], "is_gap_direct": [false], "is_magnetic": [false], "is_metal": [true], "is_stable": [true], "nelements": [2], "nsites": [4], "num_magnetic_sites": [0], "num_unique_magnetic_sites": [0], "theoretical": [false], "total_magnetization": [4e-07], "total_magnetization_normalized_formula_units": [4e-07], "total_magnetization_normalized_vol": [5.93594e-09], "uncorrected_energy_per_atom": [-59.40802], "universal_anisotropy": [0.032], "volume": [67.38613], "equilibrium_reaction_energy_per_atom": [-0.9244997]}