{"includesElement": ["", "Ca", "F", "Pb"], "includesElement___series_id": [4, 6, 7], "includesElement__abundance_crust": [41500.0, 585.0, 14.0], "includesElement__atomic_number": [20, 9, 82], "includesElement__atomic_radius": [180.0, 50.0], "includesElement__atomic_radius_rahm": [270.0, 163.0, 249.0], "includesElement__atomic_volume": [29.9, 17.1, 18.3], "includesElement__atomic_weight": [40.078, 18.9984, 207.2], "includesElement__covalent_radius_cordero": [176.0, 57.0, 146.0], "includesElement__covalent_radius_pyykko": [171.0, 64.0, 144.0], "includesElement__covalent_radius_pyykko_double": [147.0, 59.0, 135.0], "includesElement__covalent_radius_pyykko_triple": [133.0, 53.0, 137.0], "includesElement__density": [1.54, 0.001553, 11.3], "includesElement__dipole_polarizability": [160.8, 3.74, 47.0], "includesElement__dipole_polarizability_unc": [4.0, 0.08, 3.0], "includesElement__discovery_year": [1808, 1886], "includesElement__electron_affinity": [0.02455, 3.40119, 0.3567432], "includesElement__electronegativity_allred-rochow": [9.746589e-05, 0.001269531, 0.000272473], "includesElement__electronegativity_cottrell-sutton": [0.1290994, 0.2850439, 0.1980811], "includesElement__electronegativity_ghosh": [0.1154119, 0.344443, 0.177911], "includesElement__electronegativity_gordy": [0.01666667, 0.08125, 0.03923611], "includesElement__electronegativity_mulliken": [3.068853, 10.412, 3.886711], "includesElement__electronegativity_nagle": [0.2316939, 1.232373, 0.4398663], "includesElement__electronegativity_pauling": [1.0, 3.98, 1.8], "includesElement__electronegativity_sanderson": [0.1901577, 1.017681, 0.9313226], "includesElement__en_ghosh": [0.1154119, 0.344443, 0.177911], "includesElement__en_pauling": [1.0, 3.98, 1.8], "includesElement__evaporation_heat": [153.6, 6.54, 177.8], "includesElement__fusion_heat": [9.2, 0.51, 4.77], "includesElement__glawe_number": [16, 102, 82], "includesElement__group_id": [2, 17, 14], "includesElement__heat_of_formation": [177.8, 79.335, 195.2], "includesElement__is_radioactive": [false], "includesElement__lattice_constant": [5.58, 4.95], "includesElement__mendeleev_number": [7, 106, 91], "includesElement__molar_heat_capacity": [25.929, 31.304, 26.84], "includesElement__period": [4, 2, 6], "includesElement__pettifor_number": [16, 102, 82], "includesElement__specific_heat_capacity": [0.647, 0.824, 0.13], "includesElement__vdw_radius": [231.0, 147.0, 202.0], "includesElement__vdw_radius_alvarez": [262.0, 146.0, 260.0], "includesElement__vdw_radius_mm3": [281.0, 171.0, 274.0], "includesElement__vdw_radius_uff": [339.9, 336.4, 429.7], "includesElement__abundance_sea": [412.0, 1.3, 3e-05], "includesElement__atomic_weight_uncertainty": [0.004, 6e-09, 0.1], "includesElement__c6_gb": [2230.0, 10.2, 534.0], "includesElement__covalent_radius_bragg": [170.0, 67.0], "includesElement__electronegativity_allen": [6.113, 24.8, 10.97], "includesElement__en_allen": [6.113, 24.8, 10.97], "includesElement__metallic_radius": [174.0, 150.0], "includesElement__metallic_radius_c12": [197.0, 170.0], "includesElement__vdw_radius_batsanov": [240.0, 150.0, 230.0], "includesElement__c6": [2163.0, 9.52], "includesElement__vdw_radius_truhlar": [231.0], "includesElement__thermal_conductivity": [0.028, 35.3], "includesElement__is_monoisotopic": [true], "includesElement__vdw_radius_dreiding": [347.2], "includesElement__gas_basicity": [315.1], "includesElement__proton_affinity": [340.1], "includesElement__vdw_radius_bondi": [147.0, 202.0], "includesElement__vdw_radius_rt": [146.0], "formula": ["Ca1F6Pb1"], "spacegroup": ["225"], "thermalConductivity": [1.72865], "icsd": ["25522"], "band_gap": [3.4559], "density": [3.728275], "density_atomic": [20.1132], "deprecated": [false], "efermi": [-3.700666], "energy_above_hull": [0.0], "energy_per_atom": [-5.180778], "formation_energy_per_atom": [-3.032388], "homogeneous_poisson": [0.329], "is_gap_direct": [true], "is_magnetic": [false], "is_metal": [false], "is_stable": [true], "nelements": [3], "nsites": [8], "num_magnetic_sites": [0], "num_unique_magnetic_sites": [0], "theoretical": [false], "total_magnetization": [0.0], "total_magnetization_normalized_formula_units": [0.0], "total_magnetization_normalized_vol": [0.0], "uncorrected_energy_per_atom": [-13.12249], "universal_anisotropy": [8.187], "volume": [160.9056], "cbm": [-0.369], "e_electronic": [2.060889], "e_ionic": [3.432949], "e_total": [5.493839], "equilibrium_reaction_energy_per_atom": [-0.07386185], "n": [1.43558], "vbm": [-3.8249]}