{"includesElement": ["", "Si", "Tb", "Ir"], "includesElement___series_id": [5, 9, 8], "includesElement__abundance_crust": [282000.0, 1.2, 0.001], "includesElement__atomic_number": [14, 65, 77], "includesElement__atomic_radius": [110.0, 175.0, 135.0], "includesElement__atomic_radius_rahm": [232.0, 276.0, 240.0], "includesElement__atomic_volume": [12.1, 19.2, 8.54], "includesElement__atomic_weight": [28.085, 158.9254, 192.217], "includesElement__covalent_radius_cordero": [111.0, 194.0, 141.0], "includesElement__covalent_radius_pyykko": [116.0, 168.0, 122.0], "includesElement__covalent_radius_pyykko_double": [107.0, 135.0, 115.0], "includesElement__covalent_radius_pyykko_triple": [102.0, 107.0], "includesElement__density": [2.3296, 8.23, 22.5622], "includesElement__dipole_polarizability": [37.3, 170.0, 54.0], "includesElement__dipole_polarizability_unc": [0.7, 20.0, 7.0], "includesElement__discovery_year": [1824, 1843, 1804], "includesElement__electron_affinity": [1.389521, 1.165, 1.5638], "includesElement__electronegativity_allred-rochow": [0.0003084126, 0.0001009779, 0.0002620263], "includesElement__electronegativity_cottrell-sutton": [0.1891451, 0.130247, 0.1787938], "includesElement__electronegativity_ghosh": [0.178503, 0.198863, 0.25106], "includesElement__electronegativity_gordy": [0.03577586, 0.01696429, 0.03196721], "includesElement__electronegativity_mulliken": [4.770602, 3.5144, 5.26541], "includesElement__electronegativity_nagle": [0.4750986, 0.4014652, 0.5503212], "includesElement__electronegativity_pauling": [1.9, 2.2], "includesElement__electronegativity_sanderson": [0.3468158, 0.5163695, 1.475998], "includesElement__en_ghosh": [0.178503, 0.198863, 0.25106], "includesElement__en_pauling": [1.9, 2.2], "includesElement__evaporation_heat": [383.0, 389.0, 604.0], "includesElement__fusion_heat": [50.6, 27.61], "includesElement__glawe_number": [85, 25, 62], "includesElement__group_id": [14, 9], "includesElement__heat_of_formation": [450.0, 388.7, 669.0], "includesElement__is_radioactive": [false], "includesElement__lattice_constant": [5.43, 3.6, 3.84], "includesElement__mendeleev_number": [88, 29, 65], "includesElement__molar_heat_capacity": [19.99, 28.91, 25.1], "includesElement__period": [3, 6], "includesElement__pettifor_number": [85, 26, 65], "includesElement__specific_heat_capacity": [0.712, 0.182, 0.131], "includesElement__vdw_radius": [210.0, 233.0, 213.0], "includesElement__vdw_radius_alvarez": [219.0, 279.0, 241.0], "includesElement__vdw_radius_mm3": [229.0, 270.0, 236.0], "includesElement__vdw_radius_uff": [429.5, 345.1, 284.0], "includesElement__abundance_sea": [2.2, 1.4e-07], "includesElement__c6_gb": [308.0, 2590.0, 522.0], "includesElement__covalent_radius_bragg": [117.0], "includesElement__electronegativity_allen": [11.33, 9.96], "includesElement__en_allen": [11.33, 9.96], "includesElement__metallic_radius": [117.0, 127.0], "includesElement__metallic_radius_c12": [138.0, 136.0], "includesElement__thermal_conductivity": [149.0, 11.1, 147.0], "includesElement__vdw_radius_batsanov": [210.0, 200.0], "includesElement__c6": [305.0], "includesElement__vdw_radius_dreiding": [427.0], "includesElement__gas_basicity": [814.1], "includesElement__proton_affinity": [837.0], "includesElement__vdw_radius_bondi": [210.0], "includesElement__atomic_weight_uncertainty": [2e-05, 0.003], "includesElement__is_monoisotopic": [true], "formula": ["Ir2Si2Tb1"], "spacegroup": ["139"], "thermalConductivity": [14.554], "icsd": ["44664"], "band_gap": [0.0], "density": [12.0997], "density_atomic": [16.45567], "deprecated": [false], "efermi": [8.173904], "energy_above_hull": [0.0], "energy_per_atom": [-7.727075], "formation_energy_per_atom": [-1.094001], "homogeneous_poisson": [0.251], "is_gap_direct": [false], "is_magnetic": [false], "is_metal": [true], "is_stable": [true], "nelements": [3], "nsites": [5], "num_magnetic_sites": [0], "num_unique_magnetic_sites": [0], "theoretical": [false], "total_magnetization": [8.3e-06], "total_magnetization_normalized_formula_units": [8.3e-06], "total_magnetization_normalized_vol": [1.008771e-07], "uncorrected_energy_per_atom": [-31.89247], "universal_anisotropy": [0.139], "volume": [82.27837], "equilibrium_reaction_energy_per_atom": [-0.1996224]}