{"includesElement": ["", "Ga", "Ag", "O"], "includesElement___series_id": [7, 8, 1], "includesElement__abundance_crust": [19.0, 0.075, 461000.0], "includesElement__atomic_number": [31, 47, 8], "includesElement__atomic_radius": [130.0, 160.0, 60.0], "includesElement__atomic_radius_rahm": [233.0, 225.0, 171.0], "includesElement__atomic_volume": [11.8, 10.3, 14.0], "includesElement__atomic_weight": [69.723, 107.8682, 15.999], "includesElement__covalent_radius_cordero": [122.0, 145.0, 66.0], "includesElement__covalent_radius_pyykko": [124.0, 128.0, 63.0], "includesElement__covalent_radius_pyykko_double": [117.0, 139.0, 57.0], "includesElement__covalent_radius_pyykko_triple": [121.0, 137.0, 53.0], "includesElement__density": [5.91, 10.5, 0.001308], "includesElement__dipole_polarizability": [50.0, 55.0, 5.3], "includesElement__dipole_polarizability_unc": [3.0, 8.0, 0.2], "includesElement__discovery_year": [1875, 1774], "includesElement__electron_affinity": [0.43, 1.302, 1.461113], "includesElement__electronegativity_allred-rochow": [0.0003251821, 0.0002258301, 0.001146384], "includesElement__electronegativity_cottrell-sutton": [0.2008048, 0.1700184, 0.2687419], "includesElement__electronegativity_ghosh": [0.1723773, 0.1472165, 0.304575], "includesElement__electronegativity_gordy": [0.04032258, 0.02890625, 0.07222222], "includesElement__electronegativity_mulliken": [3.214651, 4.439117, 7.539584], "includesElement__electronegativity_nagle": [0.3914868, 0.5848035, 1.042218], "includesElement__electronegativity_pauling": [1.81, 1.93, 3.44], "includesElement__electronegativity_sanderson": [0.720541, 0.9437955, 0.9416494], "includesElement__en_ghosh": [0.1723773, 0.1472165, 0.304575], "includesElement__en_pauling": [1.81, 1.93, 3.44], "includesElement__evaporation_heat": [270.3, 254.1], "includesElement__fusion_heat": [5.59, 11.95], "includesElement__glawe_number": [79, 67, 97], "includesElement__group_id": [13, 11, 16], "includesElement__heat_of_formation": [271.96, 284.9, 249.229], "includesElement__is_radioactive": [false], "includesElement__lattice_constant": [4.51, 4.09, 6.83], "includesElement__mendeleev_number": [83, 72, 99], "includesElement__molar_heat_capacity": [26.03, 25.35, 29.378], "includesElement__period": [4, 5, 2], "includesElement__pettifor_number": [81, 71, 101], "includesElement__specific_heat_capacity": [0.373, 0.235, 0.918], "includesElement__vdw_radius": [187.0, 211.0, 152.0], "includesElement__vdw_radius_alvarez": [232.0, 253.0, 150.0], "includesElement__vdw_radius_mm3": [246.0, 243.0, 182.0], "includesElement__vdw_radius_uff": [438.3, 314.8, 350.0], "includesElement__abundance_sea": [3e-05, 4e-05, 857000.0], "includesElement__atomic_weight_uncertainty": [0.001, 0.0002], "includesElement__c6_gb": [456.0, 341.0, 16.7], "includesElement__electronegativity_allen": [10.39, 11.05, 21.36], "includesElement__en_allen": [10.39, 11.05, 21.36], "includesElement__metallic_radius": [125.0, 134.0], "includesElement__metallic_radius_c12": [140.0, 144.0], "includesElement__thermal_conductivity": [28.1, 429.0, 0.027], "includesElement__vdw_radius_batsanov": [210.0, 155.0], "includesElement__c6": [498.0, 15.6], "includesElement__vdw_radius_dreiding": [439.0, 340.46], "includesElement__vdw_radius_bondi": [187.0, 152.0], "includesElement__covalent_radius_bragg": [177.0, 65.0], "includesElement__gas_basicity": [459.6], "includesElement__proton_affinity": [485.2], "includesElement__vdw_radius_rt": [158.0], "formula": ["Ag2Ga2O4"], "spacegroup": ["194"], "thermalConductivity": [2.33078], "icsd": ["95665"], "band_gap": [0.5833], "density": [7.23483], "density_atomic": [12.02628], "deprecated": [false], "efermi": [2.525573], "energy_above_hull": [0.0], "energy_per_atom": [-5.524094], "formation_energy_per_atom": [-1.580204], "is_gap_direct": [false], "is_magnetic": [false], "is_metal": [false], "is_stable": [true], "nelements": [3], "nsites": [8], "num_magnetic_sites": [0], "num_unique_magnetic_sites": [0], "theoretical": [true], "total_magnetization": [0.0], "total_magnetization_normalized_formula_units": [0.0], "total_magnetization_normalized_vol": [0.0], "uncorrected_energy_per_atom": [-12.61958], "volume": [96.21025], "cbm": [2.9973], "e_electronic": [6.132886], "e_ionic": [5.303061], "e_total": [11.43595], "equilibrium_reaction_energy_per_atom": [-0.04586987], "n": [2.476467], "vbm": [2.414]}