{"includesElement": ["", "Ba", "Li", "F"], "includesElement___series_id": [4, 3, 6], "includesElement__abundance_crust": [425.0, 20.0, 585.0], "includesElement__atomic_number": [56, 3, 9], "includesElement__atomic_radius": [215.0, 145.0, 50.0], "includesElement__atomic_radius_rahm": [293.0, 220.0, 163.0], "includesElement__atomic_volume": [39.0, 13.1, 17.1], "includesElement__atomic_weight": [137.327, 6.94, 18.9984], "includesElement__covalent_radius_cordero": [215.0, 128.0, 57.0], "includesElement__covalent_radius_pyykko": [196.0, 133.0, 64.0], "includesElement__covalent_radius_pyykko_double": [161.0, 124.0, 59.0], "includesElement__covalent_radius_pyykko_triple": [149.0, 53.0], "includesElement__density": [3.62, 0.534, 0.001553], "includesElement__dipole_polarizability": [272.0, 164.1125, 3.74], "includesElement__dipole_polarizability_unc": [10.0, 0.0005, 0.08], "includesElement__discovery_year": [1808, 1817, 1886], "includesElement__electron_affinity": [0.14462, 0.618049, 3.40119], "includesElement__electronegativity_allred-rochow": [7.418784e-05, 7.3492e-05, 0.001269531], "includesElement__electronegativity_cottrell-sutton": [0.1205853, 0.09886575, 0.2850439], "includesElement__electronegativity_ghosh": [0.1586786, 0.105093, 0.344443], "includesElement__electronegativity_gordy": [0.01454082, 0.009774436, 0.08125], "includesElement__electronegativity_mulliken": [2.678142, 3.004882, 10.412], "includesElement__electronegativity_nagle": [0.1944556, 0.1826499, 1.232373], "includesElement__electronegativity_pauling": [0.89, 0.98, 3.98], "includesElement__electronegativity_sanderson": [0.3032951, 0.04886793, 1.017681], "includesElement__en_ghosh": [0.1586786, 0.105093, 0.344443], "includesElement__en_pauling": [0.89, 0.98, 3.98], "includesElement__evaporation_heat": [142.0, 148.0, 6.54], "includesElement__fusion_heat": [7.66, 2.89, 0.51], "includesElement__glawe_number": [14, 12, 102], "includesElement__group_id": [2, 1, 17], "includesElement__heat_of_formation": [179.1, 159.3, 79.335], "includesElement__is_radioactive": [false], "includesElement__lattice_constant": [5.02, 3.49], "includesElement__mendeleev_number": [9, 1, 106], "includesElement__molar_heat_capacity": [28.07, 24.86, 31.304], "includesElement__period": [6, 2], "includesElement__pettifor_number": [14, 12, 102], "includesElement__specific_heat_capacity": [0.204, 3.582, 0.824], "includesElement__vdw_radius": [268.0, 182.0, 147.0], "includesElement__vdw_radius_alvarez": [303.0, 212.0, 146.0], "includesElement__vdw_radius_mm3": [307.0, 255.0, 171.0], "includesElement__vdw_radius_uff": [370.3, 245.1, 336.4], "includesElement__abundance_sea": [0.013, 0.18, 1.3], "includesElement__atomic_weight_uncertainty": [0.007, 6e-09], "includesElement__c6_gb": [5540.0, 1410.0, 10.2], "includesElement__covalent_radius_bragg": [210.0, 150.0, 67.0], "includesElement__electronegativity_allen": [5.211, 5.392, 24.8], "includesElement__en_allen": [5.211, 5.392, 24.8], "includesElement__metallic_radius": [198.0, 123.0], "includesElement__metallic_radius_c12": [222.0, 155.0], "includesElement__vdw_radius_batsanov": [270.0, 220.0, 150.0], "includesElement__vdw_radius_truhlar": [268.0], "includesElement__thermal_conductivity": [84.8, 0.028], "includesElement__c6": [1392.0, 9.52], "includesElement__vdw_radius_bondi": [181.0, 147.0], "includesElement__is_monoisotopic": [true], "includesElement__vdw_radius_dreiding": [347.2], "includesElement__gas_basicity": [315.1], "includesElement__proton_affinity": [340.1], "includesElement__vdw_radius_rt": [146.0], "formula": ["Ba1F3Li1"], "spacegroup": ["221"], "thermalConductivity": [3.90182], "icsd": ["45310"], "band_gap": [6.5643], "density": [5.266936], "density_atomic": [12.6907], "deprecated": [false], "efermi": [-0.9739188], "energy_above_hull": [0.02190322], "energy_per_atom": [-5.655332], "formation_energy_per_atom": [-3.742865], "homogeneous_poisson": [0.247], "is_gap_direct": [true], "is_magnetic": [false], "is_metal": [false], "is_stable": [false], "nelements": [3], "nsites": [5], "num_magnetic_sites": [0], "num_unique_magnetic_sites": [0], "theoretical": [false], "total_magnetization": [0.0], "total_magnetization_normalized_formula_units": [0.0], "total_magnetization_normalized_vol": [0.0], "uncorrected_energy_per_atom": [-11.41754], "universal_anisotropy": [0.006], "volume": [63.45348], "cbm": [5.5477], "vbm": [-1.0166]}