{"includesElement": ["", "Sb", "Pt", "Tb"], "includesElement___series_id": [5, 8, 9], "includesElement__abundance_crust": [0.2, 0.005, 1.2], "includesElement__atomic_number": [51, 78, 65], "includesElement__atomic_radius": [145.0, 135.0, 175.0], "includesElement__atomic_radius_rahm": [246.0, 230.0, 276.0], "includesElement__atomic_volume": [18.4, 9.1, 19.2], "includesElement__atomic_weight": [121.76, 195.084, 158.9254], "includesElement__covalent_radius_cordero": [139.0, 136.0, 194.0], "includesElement__covalent_radius_pyykko": [140.0, 123.0, 168.0], "includesElement__covalent_radius_pyykko_double": [133.0, 112.0, 135.0], "includesElement__covalent_radius_pyykko_triple": [127.0, 110.0], "includesElement__density": [6.68, 21.5, 8.23], "includesElement__dipole_polarizability": [43.0, 48.0, 170.0], "includesElement__dipole_polarizability_unc": [2.0, 4.0, 20.0], "includesElement__electron_affinity": [1.046, 2.128, 1.165], "includesElement__electronegativity_allred-rochow": [0.0003214286, 0.0002346487, 0.0001009779], "includesElement__electronegativity_cottrell-sutton": [0.212132, 0.1698876, 0.130247], "includesElement__electronegativity_ghosh": [0.1918774, 0.25691, 0.198863], "includesElement__electronegativity_gordy": [0.045, 0.02886179, 0.01696429], "includesElement__electronegativity_mulliken": [4.827195, 5.543415, 3.5144], "includesElement__electronegativity_nagle": [0.4880907, 0.5928156, 0.4014652], "includesElement__electronegativity_pauling": [2.05, 2.2], "includesElement__electronegativity_sanderson": [0.7762722, 1.45101, 0.5163695], "includesElement__en_ghosh": [0.1918774, 0.25691, 0.198863], "includesElement__en_pauling": [2.05, 2.2], "includesElement__evaporation_heat": [195.2, 470.0, 389.0], "includesElement__fusion_heat": [20.08, 21.76], "includesElement__glawe_number": [91, 64, 25], "includesElement__group_id": [15, 10], "includesElement__heat_of_formation": [264.4, 565.7, 388.7], "includesElement__is_radioactive": [false], "includesElement__lattice_constant": [4.51, 3.92, 3.6], "includesElement__mendeleev_number": [96, 69, 29], "includesElement__molar_heat_capacity": [25.23, 25.86, 28.91], "includesElement__period": [5, 6], "includesElement__pettifor_number": [88, 68, 26], "includesElement__specific_heat_capacity": [0.207, 0.133, 0.182], "includesElement__vdw_radius": [206.0, 213.0, 233.0], "includesElement__vdw_radius_alvarez": [247.0, 229.0, 279.0], "includesElement__vdw_radius_mm3": [252.0, 239.0, 270.0], "includesElement__vdw_radius_uff": [442.0, 275.4, 345.1], "includesElement__abundance_sea": [0.00024, 1.4e-07], "includesElement__atomic_weight_uncertainty": [0.001, 0.009, 2e-05], "includesElement__c6_gb": [504.0, 470.0, 2590.0], "includesElement__covalent_radius_bragg": [140.0], "includesElement__electronegativity_allen": [11.74, 10.16], "includesElement__en_allen": [11.74, 10.16], "includesElement__metallic_radius": [139.0, 130.0], "includesElement__metallic_radius_c12": [166.0, 139.0], "includesElement__thermal_conductivity": [24.43, 71.6, 11.1], "includesElement__vdw_radius_batsanov": [220.0, 205.0], "includesElement__c6": [492.0], "includesElement__vdw_radius_dreiding": [435.0], "includesElement__vdw_radius_truhlar": [206.0], "includesElement__discovery_year": [1735, 1843], "includesElement__is_monoisotopic": [true], "formula": ["Pt1Sb1Tb1", "TbSbPt"], "mp_id": ["16313"], "spacegroup": ["216"], "thermalConductivity": [5.66714, 3.82], "icsd": ["77950"], "band_gap": [0.0968], "density": [11.03954], "density_atomic": [23.85466], "deprecated": [false], "efermi": [6.199506], "energy_above_hull": [0.0], "energy_per_atom": [-37.52162], "formation_energy_per_atom": [-1.381467], "is_gap_direct": [true], "is_magnetic": [false], "is_metal": [false], "is_stable": [true], "nelements": [3], "nsites": [3], "num_magnetic_sites": [0], "num_unique_magnetic_sites": [0], "theoretical": [false], "total_magnetization": [0.0], "total_magnetization_normalized_formula_units": [0.0], "total_magnetization_normalized_vol": [0.0], "uncorrected_energy_per_atom": [-37.52162], "volume": [71.56398], "cbm": [6.2495], "e_electronic": [23.27195], "e_ionic": [1.219301], "e_total": [24.49125], "equilibrium_reaction_energy_per_atom": [-0.2272849], "n": [4.824101], "vbm": [6.1527], "e_ij_max": [0.3390033]}