{"includesElement": ["", "Ba", "H", "I"], "includesElement___series_id": [4, 1, 6], "includesElement__abundance_crust": [425.0, 1400.0, 0.45], "includesElement__atomic_number": [56, 1, 53], "includesElement__atomic_radius": [215.0, 25.0, 140.0], "includesElement__atomic_radius_rahm": [293.0, 154.0, 238.0], "includesElement__atomic_volume": [39.0, 14.1, 25.7], "includesElement__atomic_weight": [137.327, 1.008, 126.9045], "includesElement__covalent_radius_cordero": [215.0, 31.0, 139.0], "includesElement__covalent_radius_pyykko": [196.0, 32.0, 133.0], "includesElement__covalent_radius_pyykko_double": [161.0, 129.0], "includesElement__covalent_radius_pyykko_triple": [149.0, 125.0], "includesElement__density": [3.62, 8.2e-05, 4.933], "includesElement__dipole_polarizability": [272.0, 4.50711, 32.9], "includesElement__dipole_polarizability_unc": [10.0, 3e-05, 1.3], "includesElement__discovery_year": [1808, 1766, 1811], "includesElement__electron_affinity": [0.14462, 0.754195, 3.059037], "includesElement__electronegativity_allred-rochow": [7.418784e-05, 0.0009765625, 0.0004296455], "includesElement__electronegativity_cottrell-sutton": [0.1205853, 0.1767767, 0.2390457], "includesElement__electronegativity_ghosh": [0.1586786, 0.2638, 0.2195176], "includesElement__electronegativity_gordy": [0.01454082, 0.03125, 0.05714286], "includesElement__electronegativity_mulliken": [2.678142, 7.176315, 6.755148], "includesElement__electronegativity_nagle": [0.1944556, 0.6053882, 0.5969904], "includesElement__electronegativity_pauling": [0.89, 2.2, 2.66], "includesElement__electronegativity_sanderson": [0.3032951, 2.187771, 0.9386429], "includesElement__en_ghosh": [0.1586786, 0.2638, 0.2195176], "includesElement__en_pauling": [0.89, 2.2, 2.66], "includesElement__evaporation_heat": [142.0, 0.904, 41.95], "includesElement__fusion_heat": [7.66, 0.117, 15.52], "includesElement__glawe_number": [14, 103, 99], "includesElement__group_id": [2, 1, 17], "includesElement__heat_of_formation": [179.1, 217.998, 106.757], "includesElement__is_radioactive": [false], "includesElement__lattice_constant": [5.02, 3.75, 7.72], "includesElement__mendeleev_number": [9, 105, 109], "includesElement__molar_heat_capacity": [28.07, 28.836, 54.43], "includesElement__period": [6, 1, 5], "includesElement__pettifor_number": [14, 103, 97], "includesElement__specific_heat_capacity": [0.204, 14.304, 0.214], "includesElement__vdw_radius": [268.0, 110.0, 198.0], "includesElement__vdw_radius_alvarez": [303.0, 120.0, 204.0], "includesElement__vdw_radius_mm3": [307.0, 162.0, 236.0], "includesElement__vdw_radius_uff": [370.3, 288.6, 450.0], "includesElement__abundance_sea": [0.013, 108000.0, 0.06], "includesElement__atomic_weight_uncertainty": [0.007, 3e-05], "includesElement__c6_gb": [5540.0, 6.51, 389.0], "includesElement__covalent_radius_bragg": [210.0, 140.0], "includesElement__electronegativity_allen": [5.211, 13.61, 13.95], "includesElement__en_allen": [5.211, 13.61, 13.95], "includesElement__metallic_radius": [198.0], "includesElement__metallic_radius_c12": [222.0, 78.0, 139.0], "includesElement__vdw_radius_batsanov": [270.0, 210.0], "includesElement__vdw_radius_truhlar": [268.0], "includesElement__thermal_conductivity": [0.1815], "includesElement__c6": [6.499027, 385.0], "includesElement__vdw_radius_dreiding": [319.5, 415.0], "includesElement__vdw_radius_bondi": [120.0, 198.0], "includesElement__vdw_radius_rt": [110.0, 203.0], "includesElement__is_monoisotopic": [true], "includesElement__gas_basicity": [583.5], "includesElement__proton_affinity": [608.2], "formula": ["Ba2H2I2"], "spacegroup": ["129"], "thermalConductivity": [1.17032], "icsd": ["37203"], "band_gap": [2.8111], "density": [4.951264], "density_atomic": [29.65172], "deprecated": [false], "efermi": [1.992644], "energy_above_hull": [0.0], "energy_per_atom": [-3.678794], "formation_energy_per_atom": [-1.416291], "is_gap_direct": [true], "is_magnetic": [false], "is_metal": [false], "is_stable": [true], "nelements": [3], "nsites": [6], "num_magnetic_sites": [0], "num_unique_magnetic_sites": [0], "theoretical": [false], "total_magnetization": [0.0], "total_magnetization_normalized_formula_units": [0.0], "total_magnetization_normalized_vol": [0.0], "uncorrected_energy_per_atom": [-19.5725], "volume": [177.9103], "cbm": [4.701], "e_electronic": [4.440678], "e_ionic": [6.213436], "e_total": [10.65411], "equilibrium_reaction_energy_per_atom": [-0.03987019], "n": [2.107292], "vbm": [1.8899]}