{"includesElement": ["Si", "Fe", "W"], "includesElement___series_id": [5, 8], "includesElement__abundance_crust": [282000.0, 56300.0, 1.25], "includesElement__atomic_number": [14, 26, 74], "includesElement__atomic_radius": [110.0, 140.0, 135.0], "includesElement__atomic_radius_rahm": [232.0, 237.0, 253.0], "includesElement__atomic_volume": [12.1, 7.1, 9.53], "includesElement__atomic_weight": [28.085, 55.845, 183.84], "includesElement__covalent_radius_cordero": [111.0, 142.0, 162.0], "includesElement__covalent_radius_pyykko": [116.0, 137.0], "includesElement__covalent_radius_pyykko_double": [107.0, 109.0, 120.0], "includesElement__covalent_radius_pyykko_triple": [102.0, 115.0], "includesElement__density": [2.3296, 7.87, 19.3], "includesElement__dipole_polarizability": [37.3, 62.0, 68.0], "includesElement__dipole_polarizability_unc": [0.7, 4.0, 15.0], "includesElement__discovery_year": [1824, 1783], "includesElement__electron_affinity": [1.389521, 0.151, 0.81626], "includesElement__electronegativity_allred-rochow": [0.0003084126, 0.0002786861, 0.0001838137], "includesElement__electronegativity_cottrell-sutton": [0.1891451, 0.1797987, 0.1586899], "includesElement__electronegativity_ghosh": [0.178503, 0.1392532, 0.2390504], "includesElement__electronegativity_gordy": [0.03577586, 0.03232759, 0.02518248], "includesElement__electronegativity_mulliken": [4.770602, 4.026734, 4.340145], "includesElement__electronegativity_nagle": [0.4750986, 0.5053195, 0.4451921], "includesElement__electronegativity_pauling": [1.9, 1.83, 1.7], "includesElement__electronegativity_sanderson": [0.3468158, 0.748727, 1.019283], "includesElement__en_ghosh": [0.178503, 0.1392532, 0.2390504], "includesElement__en_pauling": [1.9, 1.83, 1.7], "includesElement__evaporation_heat": [383.0, 340.0, 824.0], "includesElement__fusion_heat": [50.6, 13.8, 35.0], "includesElement__glawe_number": [85, 71, 57], "includesElement__group_id": [14, 8, 6], "includesElement__heat_of_formation": [450.0, 415.5, 851.0], "includesElement__is_radioactive": [false], "includesElement__lattice_constant": [5.43, 2.87, 3.16], "includesElement__mendeleev_number": [88, 59, 53], "includesElement__molar_heat_capacity": [19.99, 25.1, 24.27], "includesElement__period": [3, 4, 6], "includesElement__pettifor_number": [85, 61, 56], "includesElement__specific_heat_capacity": [0.712, 0.449, 0.132], "includesElement__vdw_radius": [210.0, 204.0, 218.0], "includesElement__vdw_radius_alvarez": [219.0, 244.0, 257.0], "includesElement__vdw_radius_mm3": [229.0, 223.0, 239.0], "includesElement__vdw_radius_uff": [429.5, 291.2, 309.6], "includesElement__abundance_sea": [2.2, 0.002, 0.0001], "includesElement__c6_gb": [308.0, 548.0, 757.0], "includesElement__covalent_radius_bragg": [117.0, 140.0], "includesElement__electronegativity_allen": [11.33, 10.64, 8.67], "includesElement__en_allen": [11.33, 10.64, 8.67], "includesElement__metallic_radius": [117.0, 130.0], "includesElement__metallic_radius_c12": [138.0, 126.0, 139.0], "includesElement__thermal_conductivity": [149.0, 80.4, 173.0], "includesElement__vdw_radius_batsanov": [210.0, 205.0], "includesElement__c6": [305.0, 482.0], "includesElement__vdw_radius_dreiding": [427.0], "includesElement__gas_basicity": [814.1, 731.1], "includesElement__proton_affinity": [837.0, 754.0], "includesElement__vdw_radius_bondi": [210.0], "includesElement__atomic_weight_uncertainty": [0.002, 0.01], "formula": ["FeSiW"], "mp_id": ["961653"], "thermalConductivity": [6.21], "band_gap": [0.0629], "density": [10.42051], "density_atomic": [14.22334], "deprecated": [false], "efermi": [6.820441], "energy_above_hull": [0.03652423], "energy_per_atom": [-9.231952], "formation_energy_per_atom": [-0.2807953], "homogeneous_poisson": [0.272], "is_gap_direct": [false], "is_magnetic": [false], "is_metal": [false], "is_stable": [false], "nelements": [3], "nsites": [3], "num_magnetic_sites": [0], "num_unique_magnetic_sites": [0], "theoretical": [true], "total_magnetization": [0.0002524], "total_magnetization_normalized_formula_units": [0.0002524], "total_magnetization_normalized_vol": [5.915159e-06], "uncorrected_energy_per_atom": [-9.255619], "universal_anisotropy": [0.017], "volume": [42.67003], "cbm": [6.8507], "vbm": [6.7878]}