{"includesElement": ["", "Ir", "Ta"], "includesElement___series_id": [8], "includesElement__abundance_crust": [0.001, 2.0], "includesElement__atomic_number": [77, 73], "includesElement__atomic_radius": [135.0, 145.0], "includesElement__atomic_radius_rahm": [240.0, 258.0], "includesElement__atomic_volume": [8.54, 10.9], "includesElement__atomic_weight": [192.217, 180.9479], "includesElement__covalent_radius_cordero": [141.0, 170.0], "includesElement__covalent_radius_pyykko": [122.0, 146.0], "includesElement__covalent_radius_pyykko_double": [115.0, 126.0], "includesElement__covalent_radius_pyykko_triple": [107.0, 119.0], "includesElement__density": [22.5622, 16.4], "includesElement__dipole_polarizability": [54.0, 74.0], "includesElement__dipole_polarizability_unc": [7.0, 20.0], "includesElement__discovery_year": [1804, 1802], "includesElement__electron_affinity": [1.5638, 0.322], "includesElement__electronegativity_allred-rochow": [0.0002620263, 0.0001548133], "includesElement__electronegativity_cottrell-sutton": [0.1787938, 0.1503421], "includesElement__electronegativity_ghosh": [0.25106, 0.234581], "includesElement__electronegativity_gordy": [0.03196721, 0.02260274], "includesElement__electronegativity_mulliken": [5.26541, 3.935785], "includesElement__electronegativity_nagle": [0.5503212, 0.4072985], "includesElement__electronegativity_pauling": [2.2, 1.5], "includesElement__electronegativity_sanderson": [1.475998, 0.8358832], "includesElement__en_ghosh": [0.25106, 0.234581], "includesElement__en_pauling": [2.2, 1.5], "includesElement__evaporation_heat": [604.0, 758.0], "includesElement__fusion_heat": [27.61, 24.7], "includesElement__glawe_number": [62, 52], "includesElement__group_id": [9, 5], "includesElement__heat_of_formation": [669.0, 782.0], "includesElement__is_radioactive": [false], "includesElement__lattice_constant": [3.84, 3.31], "includesElement__mendeleev_number": [65, 49], "includesElement__molar_heat_capacity": [25.1, 25.36], "includesElement__period": [6], "includesElement__pettifor_number": [65, 53], "includesElement__specific_heat_capacity": [0.131, 0.14], "includesElement__vdw_radius": [213.0, 222.0], "includesElement__vdw_radius_alvarez": [241.0, 253.0], "includesElement__vdw_radius_mm3": [236.0, 243.0], "includesElement__vdw_radius_uff": [284.0, 317.0], "includesElement__atomic_weight_uncertainty": [0.003, 2e-05], "includesElement__c6_gb": [522.0, 887.0], "includesElement__electronegativity_allen": [9.96, 7.93], "includesElement__en_allen": [9.96, 7.93], "includesElement__metallic_radius": [127.0, 134.0], "includesElement__metallic_radius_c12": [136.0, 146.0], "includesElement__thermal_conductivity": [147.0, 57.5], "includesElement__vdw_radius_batsanov": [200.0, 220.0], "includesElement__abundance_sea": [2e-06], "formula": ["Ir3Ta1"], "spacegroup": ["221"], "thermalConductivity": [26.255], "icsd": ["104566"], "band_gap": [0.0], "density": [21.12139], "density_atomic": [14.89039], "deprecated": [false], "efermi": [9.52817], "energy_above_hull": [0.0], "energy_per_atom": [-52.17512], "formation_energy_per_atom": [-0.7576419], "homogeneous_poisson": [0.231], "is_gap_direct": [false], "is_magnetic": [false], "is_metal": [true], "is_stable": [true], "nelements": [2], "nsites": [4], "num_magnetic_sites": [0], "num_unique_magnetic_sites": [0], "theoretical": [false], "total_magnetization": [2.8e-06], "total_magnetization_normalized_formula_units": [2.8e-06], "total_magnetization_normalized_vol": [4.70102e-08], "uncorrected_energy_per_atom": [-52.17512], "universal_anisotropy": [0.232], "volume": [59.56155], "equilibrium_reaction_energy_per_atom": [-0.4340453]}