{"includesElement": ["", "F", "Yb", "Rb"], "includesElement___series_id": [6, 9, 3], "includesElement__abundance_crust": [585.0, 3.2, 90.0], "includesElement__atomic_number": [9, 70, 37], "includesElement__atomic_radius": [50.0, 175.0, 235.0], "includesElement__atomic_radius_rahm": [163.0, 277.0, 240.0], "includesElement__atomic_volume": [17.1, 24.8, 55.9], "includesElement__atomic_weight": [18.9984, 173.045, 85.4678], "includesElement__covalent_radius_cordero": [57.0, 187.0, 220.0], "includesElement__covalent_radius_pyykko": [64.0, 170.0, 210.0], "includesElement__covalent_radius_pyykko_double": [59.0, 129.0, 202.0], "includesElement__covalent_radius_pyykko_triple": [53.0], "includesElement__density": [0.001553, 6.9, 1.53], "includesElement__dipole_polarizability": [3.74, 139.0, 319.8], "includesElement__dipole_polarizability_unc": [0.08, 6.0, 0.3], "includesElement__discovery_year": [1886, 1878, 1861], "includesElement__electron_affinity": [3.40119, -0.02, 0.48592], "includesElement__electronegativity_allred-rochow": [0.001269531, 9.861592e-05, 4.988662e-05], "includesElement__electronegativity_cottrell-sutton": [0.2850439, 0.1294786, 0.1023533], "includesElement__electronegativity_ghosh": [0.344443, 0.22119, 0.104686], "includesElement__electronegativity_gordy": [0.08125, 0.01676471, 0.01047619], "includesElement__electronegativity_mulliken": [10.412, 3.11708, 2.331524], "includesElement__electronegativity_nagle": [1.232373, 0.4864465, 0.1462314], "includesElement__electronegativity_pauling": [3.98, 0.82], "includesElement__electronegativity_sanderson": [1.017681, 0.5176678, 0.1764136], "includesElement__en_ghosh": [0.344443, 0.22119, 0.104686], "includesElement__en_pauling": [3.98, 0.82], "includesElement__evaporation_heat": [6.54, 159.0, 75.8], "includesElement__fusion_heat": [0.51, 3.35, 2.2], "includesElement__glawe_number": [102, 18, 9], "includesElement__group_id": [17, 1], "includesElement__heat_of_formation": [79.335, 155.6, 80.9], "includesElement__is_radioactive": [false], "includesElement__mendeleev_number": [106, 39, 4], "includesElement__molar_heat_capacity": [31.304, 26.74, 31.06], "includesElement__period": [2, 6, 5], "includesElement__pettifor_number": [102, 17, 9], "includesElement__specific_heat_capacity": [0.824, 0.155, 0.363], "includesElement__vdw_radius": [147.0, 226.0, 303.0], "includesElement__vdw_radius_alvarez": [146.0, 280.0, 321.0], "includesElement__vdw_radius_mm3": [171.0, 279.0, 325.0], "includesElement__vdw_radius_uff": [336.4, 335.5, 411.4], "includesElement__abundance_sea": [1.3, 8.2e-07, 0.12], "includesElement__atomic_weight_uncertainty": [6e-09, 0.01, 0.0003], "includesElement__c6_gb": [10.2, 1910.0, 4660.0], "includesElement__covalent_radius_bragg": [67.0, 225.0], "includesElement__electronegativity_allen": [24.8, 4.177], "includesElement__en_allen": [24.8, 4.177], "includesElement__thermal_conductivity": [0.028, 58.2], "includesElement__vdw_radius_batsanov": [150.0, 290.0], "includesElement__c6": [9.52, 4769.0], "includesElement__is_monoisotopic": [true], "includesElement__vdw_radius_dreiding": [347.2], "includesElement__gas_basicity": [315.1], "includesElement__proton_affinity": [340.1], "includesElement__vdw_radius_bondi": [147.0], "includesElement__vdw_radius_rt": [146.0], "includesElement__lattice_constant": [5.49, 5.59], "includesElement__metallic_radius": [216.0], "includesElement__metallic_radius_c12": [248.0], "includesElement__vdw_radius_truhlar": [303.0], "formula": ["F3Rb1Yb1"], "spacegroup": ["221"], "thermalConductivity": [2.1863], "icsd": ["49590"], "band_gap": [6.5181], "density": [5.950545], "density_atomic": [17.60864], "deprecated": [false], "efermi": [-2.748411], "homogeneous_poisson": [0.269], "is_gap_direct": [false], "is_magnetic": [false], "is_metal": [false], "is_stable": [false], "nelements": [3], "nsites": [5], "num_magnetic_sites": [0], "num_unique_magnetic_sites": [0], "theoretical": [false], "total_magnetization": [0.0001241], "total_magnetization_normalized_formula_units": [0.0001241], "total_magnetization_normalized_vol": [1.409535e-06], "universal_anisotropy": [1.039], "volume": [88.04321], "cbm": [3.7427], "vbm": [-2.7754]}