{"includesElement": ["", "Ni", "Sb", "Ho"], "includesElement___series_id": [8, 5, 9], "includesElement__abundance_crust": [84.0, 0.2, 1.3], "includesElement__atomic_number": [28, 51, 67], "includesElement__atomic_radius": [135.0, 145.0, 175.0], "includesElement__atomic_radius_rahm": [229.0, 246.0, 273.0], "includesElement__atomic_volume": [6.6, 18.4, 18.7], "includesElement__atomic_weight": [58.6934, 121.76, 164.9303], "includesElement__covalent_radius_cordero": [124.0, 139.0, 192.0], "includesElement__covalent_radius_pyykko": [110.0, 140.0, 166.0], "includesElement__covalent_radius_pyykko_double": [101.0, 133.0], "includesElement__covalent_radius_pyykko_triple": [101.0, 127.0], "includesElement__density": [8.9, 6.68, 8.8], "includesElement__dipole_polarizability": [49.0, 43.0, 156.0], "includesElement__dipole_polarizability_unc": [3.0, 2.0, 10.0], "includesElement__discovery_year": [1751, 1878], "includesElement__electron_affinity": [1.156, 1.046], "includesElement__electronegativity_allred-rochow": [0.0003347107, 0.0003214286, 0.0001034258], "includesElement__electronegativity_cottrell-sutton": [0.1918806, 0.212132, 0.1310293], "includesElement__electronegativity_ghosh": [0.1472068, 0.1918774, 0.207795], "includesElement__electronegativity_gordy": [0.03681818, 0.045, 0.01716867], "includesElement__electronegativity_mulliken": [4.397939, 4.827195, 3.01075], "includesElement__electronegativity_nagle": [0.588755, 0.4880907, 0.4367902], "includesElement__electronegativity_pauling": [1.91, 2.05, 1.23], "includesElement__electronegativity_sanderson": [0.937704, 0.7762722, 0.5434919], "includesElement__en_ghosh": [0.1472068, 0.1918774, 0.207795], "includesElement__en_pauling": [1.91, 2.05, 1.23], "includesElement__evaporation_heat": [378.6, 195.2, 301.0], "includesElement__fusion_heat": [17.61, 20.08], "includesElement__glawe_number": [69, 91, 23], "includesElement__group_id": [10, 15], "includesElement__heat_of_formation": [430.1, 264.4, 300.6], "includesElement__is_radioactive": [false], "includesElement__lattice_constant": [3.52, 4.51, 3.58], "includesElement__mendeleev_number": [67, 96, 33], "includesElement__molar_heat_capacity": [26.07, 25.23, 27.15], "includesElement__period": [4, 5, 6], "includesElement__pettifor_number": [67, 88, 24], "includesElement__specific_heat_capacity": [0.444, 0.207, 0.165], "includesElement__vdw_radius": [197.0, 206.0, 230.0], "includesElement__vdw_radius_alvarez": [240.0, 247.0, 281.0], "includesElement__vdw_radius_mm3": [222.0, 252.0, 267.0], "includesElement__vdw_radius_uff": [283.4, 442.0, 340.9], "includesElement__abundance_sea": [0.00056, 0.00024, 2.2e-07], "includesElement__atomic_weight_uncertainty": [0.0004, 0.001, 2e-05], "includesElement__c6_gb": [393.0, 504.0, 2280.0], "includesElement__covalent_radius_bragg": [135.0, 140.0], "includesElement__electronegativity_allen": [11.13, 11.74], "includesElement__en_allen": [11.13, 11.74], "includesElement__metallic_radius": [115.0, 139.0], "includesElement__metallic_radius_c12": [124.0, 166.0], "includesElement__thermal_conductivity": [90.9, 24.43], "includesElement__vdw_radius_batsanov": [200.0, 220.0], "includesElement__c6": [373.0, 492.0], "includesElement__gas_basicity": [714.1], "includesElement__proton_affinity": [737.0], "includesElement__vdw_radius_dreiding": [435.0], "includesElement__vdw_radius_truhlar": [206.0], "includesElement__is_monoisotopic": [true], "formula": ["Ho1Ni1Sb1", "HoNiSb"], "mp_id": ["4174"], "spacegroup": ["216"], "thermalConductivity": [8.97175, 9.69], "icsd": ["639500"], "band_gap": [0.292], "density": [9.215233], "density_atomic": [20.74548], "deprecated": [false], "efermi": [6.535647], "energy_above_hull": [0.0], "energy_per_atom": [-5.798447], "formation_energy_per_atom": [-0.9628412], "homogeneous_poisson": [0.243], "is_gap_direct": [false], "is_magnetic": [false], "is_metal": [false], "is_stable": [true], "nelements": [3], "nsites": [3], "num_magnetic_sites": [0], "num_unique_magnetic_sites": [0], "theoretical": [false], "total_magnetization": [0.0], "total_magnetization_normalized_formula_units": [0.0], "total_magnetization_normalized_vol": [0.0], "uncorrected_energy_per_atom": [-24.52463], "universal_anisotropy": [0.181], "volume": [62.23643], "cbm": [6.7158], "e_electronic": [18.65581], "e_ionic": [2.882429], "e_total": [21.53823], "equilibrium_reaction_energy_per_atom": [-0.1484215], "n": [4.319237], "vbm": [6.4238], "e_ij_max": [0.2337433]}