{"includesElement": ["", "N", "Er", "In"], "includesElement___series_id": [1, 9, 7], "includesElement__abundance_crust": [19.0, 3.5, 0.25], "includesElement__atomic_number": [7, 68, 49], "includesElement__atomic_radius": [65.0, 175.0, 155.0], "includesElement__atomic_radius_rahm": [179.0, 272.0, 246.0], "includesElement__atomic_volume": [17.3, 18.4, 15.7], "includesElement__atomic_weight": [14.007, 167.259, 114.818], "includesElement__covalent_radius_cordero": [71.0, 189.0, 142.0], "includesElement__covalent_radius_pyykko": [71.0, 165.0, 142.0], "includesElement__covalent_radius_pyykko_double": [60.0, 133.0, 136.0], "includesElement__covalent_radius_pyykko_triple": [54.0, 146.0], "includesElement__density": [0.001145, 9.07, 7.31], "includesElement__dipole_polarizability": [7.4, 150.0, 65.0], "includesElement__dipole_polarizability_unc": [0.2, 10.0, 4.0], "includesElement__discovery_year": [1772, 1843, 1863], "includesElement__electron_affinity": [-1.4, 0.3], "includesElement__electronegativity_allred-rochow": [0.000773656, 0.0001046832, 0.0002479667], "includesElement__electronegativity_cottrell-sutton": [0.2343706, 0.1314257, 0.1876467], "includesElement__electronegativity_ghosh": [0.26493, 0.212261, 0.16423], "includesElement__electronegativity_gordy": [0.05492958, 0.01727273, 0.03521127], "includesElement__electronegativity_mulliken": [6.567065, 3.05385, 3.043178], "includesElement__electronegativity_nagle": [0.8774979, 0.4536061, 0.3587038], "includesElement__electronegativity_pauling": [3.04, 1.24, 1.78], "includesElement__electronegativity_sanderson": [0.577482, 0.5576573, 0.7172747], "includesElement__en_ghosh": [0.26493, 0.212261, 0.16423], "includesElement__en_pauling": [3.04, 1.24, 1.78], "includesElement__glawe_number": [88, 22, 80], "includesElement__group_id": [15, 13], "includesElement__heat_of_formation": [472.44, 316.4, 243.0], "includesElement__is_radioactive": [false], "includesElement__lattice_constant": [4.039, 3.56, 4.59], "includesElement__mendeleev_number": [93, 35, 84], "includesElement__molar_heat_capacity": [29.124, 28.12, 26.74], "includesElement__period": [2, 6, 5], "includesElement__pettifor_number": [100, 23, 79], "includesElement__specific_heat_capacity": [1.04, 0.168, 0.233], "includesElement__vdw_radius": [155.0, 229.0, 193.0], "includesElement__vdw_radius_alvarez": [166.0, 283.0, 243.0], "includesElement__vdw_radius_mm3": [193.0, 267.0, 264.0], "includesElement__vdw_radius_uff": [366.0, 339.1, 446.3], "includesElement__abundance_sea": [0.5, 8.7e-07, 0.02], "includesElement__c6_gb": [25.7, 2150.0, 643.0], "includesElement__covalent_radius_bragg": [65.0], "includesElement__electronegativity_allen": [18.13, 9.793], "includesElement__en_allen": [18.13, 9.793], "includesElement__metallic_radius_c12": [53.0, 158.0], "includesElement__thermal_conductivity": [0.026, 81.8], "includesElement__vdw_radius_batsanov": [160.0, 220.0], "includesElement__c6": [24.2, 779.0], "includesElement__vdw_radius_dreiding": [366.21, 459.0], "includesElement__gas_basicity": [318.7], "includesElement__proton_affinity": [342.2], "includesElement__vdw_radius_bondi": [155.0, 193.0], "includesElement__vdw_radius_rt": [164.0], "includesElement__evaporation_heat": [317.0, 225.1], "includesElement__atomic_weight_uncertainty": [0.003, 0.001], "includesElement__fusion_heat": [3.24], "includesElement__metallic_radius": [142.0], "formula": ["Er3In1N1"], "spacegroup": ["221"], "thermalConductivity": [9.52523], "icsd": ["98506"], "band_gap": [0.0], "density": [9.892062], "density_atomic": [21.17129], "deprecated": [false], "efermi": [4.913999], "energy_above_hull": [0.0], "energy_per_atom": [-27.90606], "formation_energy_per_atom": [-1.209329], "is_gap_direct": [false], "is_magnetic": [false], "is_metal": [true], "is_stable": [true], "nelements": [3], "nsites": [5], "num_magnetic_sites": [0], "num_unique_magnetic_sites": [0], "theoretical": [false], "total_magnetization": [2.89e-05], "total_magnetization_normalized_formula_units": [2.89e-05], "total_magnetization_normalized_vol": [2.730112e-07], "uncorrected_energy_per_atom": [-27.90606], "volume": [105.8565], "equilibrium_reaction_energy_per_atom": [-0.09382372]}