{"includesElement": ["", "Cd", "Ba"], "includesElement___series_id": [8, 4], "includesElement__abundance_crust": [0.15, 425.0], "includesElement__atomic_number": [48, 56], "includesElement__atomic_radius": [155.0, 215.0], "includesElement__atomic_radius_rahm": [238.0, 293.0], "includesElement__atomic_volume": [13.1, 39.0], "includesElement__atomic_weight": [112.414, 137.327], "includesElement__covalent_radius_cordero": [144.0, 215.0], "includesElement__covalent_radius_pyykko": [136.0, 196.0], "includesElement__covalent_radius_pyykko_double": [144.0, 161.0], "includesElement__density": [8.69, 3.62], "includesElement__dipole_polarizability": [46.0, 272.0], "includesElement__dipole_polarizability_unc": [2.0, 10.0], "includesElement__discovery_year": [1817, 1808], "includesElement__electronegativity_allred-rochow": [0.000235186, 7.418784e-05], "includesElement__electronegativity_cottrell-sutton": [0.1788443, 0.1205853], "includesElement__electronegativity_ghosh": [0.1504066, 0.1586786], "includesElement__electronegativity_gordy": [0.03198529, 0.01454082], "includesElement__electronegativity_mulliken": [4.496911, 2.678142], "includesElement__electronegativity_nagle": [0.6389612, 0.1944556], "includesElement__electronegativity_pauling": [1.69, 0.89], "includesElement__electronegativity_sanderson": [0.801562, 0.3032951], "includesElement__en_ghosh": [0.1504066, 0.1586786], "includesElement__en_pauling": [1.69, 0.89], "includesElement__evaporation_heat": [59.1, 142.0], "includesElement__fusion_heat": [6.11, 7.66], "includesElement__glawe_number": [75, 14], "includesElement__group_id": [12, 2], "includesElement__heat_of_formation": [111.8, 179.1], "includesElement__is_radioactive": [false], "includesElement__lattice_constant": [2.98, 5.02], "includesElement__mendeleev_number": [78, 9], "includesElement__molar_heat_capacity": [26.02, 28.07], "includesElement__period": [5, 6], "includesElement__pettifor_number": [75, 14], "includesElement__specific_heat_capacity": [0.232, 0.204], "includesElement__vdw_radius": [218.0, 268.0], "includesElement__vdw_radius_alvarez": [249.0, 303.0], "includesElement__vdw_radius_mm3": [250.0, 307.0], "includesElement__vdw_radius_uff": [284.8, 370.3], "includesElement__abundance_sea": [0.00011, 0.013], "includesElement__atomic_weight_uncertainty": [0.004, 0.007], "includesElement__c6_gb": [405.0, 5540.0], "includesElement__covalent_radius_bragg": [160.0, 210.0], "includesElement__electronegativity_allen": [8.995, 5.211], "includesElement__en_allen": [8.995, 5.211], "includesElement__metallic_radius": [138.0, 198.0], "includesElement__metallic_radius_c12": [151.0, 222.0], "includesElement__thermal_conductivity": [96.9], "includesElement__vdw_radius_batsanov": [220.0, 270.0], "includesElement__covalent_radius_pyykko_triple": [149.0], "includesElement__electron_affinity": [0.14462], "includesElement__vdw_radius_truhlar": [268.0], "formula": ["Ba1Cd1"], "spacegroup": ["221"], "thermalConductivity": [2.05258], "icsd": ["58642"], "band_gap": [0.0], "density": [5.394636], "density_atomic": [38.4363], "deprecated": [false], "efermi": [2.033769], "energy_above_hull": [0.0], "energy_per_atom": [-1.748704], "formation_energy_per_atom": [-0.3092118], "homogeneous_poisson": [0.244], "is_gap_direct": [false], "is_magnetic": [false], "is_metal": [true], "is_stable": [true], "nelements": [2], "nsites": [2], "num_magnetic_sites": [0], "num_unique_magnetic_sites": [0], "theoretical": [false], "total_magnetization": [3.35e-05], "total_magnetization_normalized_formula_units": [3.35e-05], "total_magnetization_normalized_vol": [4.357859e-07], "uncorrected_energy_per_atom": [-23.58993], "universal_anisotropy": [0.677], "volume": [76.87261], "equilibrium_reaction_energy_per_atom": [-0.04170855]}