{"includesElement": ["Sn", "Zr", "Pd"], "includesElement___series_id": [7, 8], "includesElement__abundance_crust": [2.3, 165.0, 0.015], "includesElement__atomic_number": [50, 40, 46], "includesElement__atomic_radius": [145.0, 155.0, 140.0], "includesElement__atomic_radius_rahm": [248.0, 269.0, 215.0], "includesElement__atomic_volume": [16.3, 14.1, 8.9], "includesElement__atomic_weight": [118.71, 91.224, 106.42], "includesElement__covalent_radius_cordero": [139.0, 175.0], "includesElement__covalent_radius_pyykko": [140.0, 154.0, 120.0], "includesElement__covalent_radius_pyykko_double": [130.0, 127.0, 117.0], "includesElement__covalent_radius_pyykko_triple": [132.0, 121.0, 112.0], "includesElement__density": [7.287, 6.52, 12.0], "includesElement__dipole_polarizability": [53.0, 112.0, 26.14], "includesElement__dipole_polarizability_unc": [6.0, 13.0, 0.1], "includesElement__electron_affinity": [1.112067, 0.426, 0.562], "includesElement__electronegativity_allred-rochow": [0.0002882653, 0.0001328217, 0.0004756944], "includesElement__electronegativity_cottrell-sutton": [0.2008909, 0.1430194, 0.2389212], "includesElement__electronegativity_ghosh": [0.178052, 0.1248887, 0.1440276], "includesElement__electronegativity_gordy": [0.04035714, 0.02045455, 0.05708333], "includesElement__electronegativity_mulliken": [4.227992, 3.52995, 4.44943], "includesElement__electronegativity_nagle": [0.4225986, 0.3293169, 0.7259357], "includesElement__electronegativity_pauling": [1.96, 1.33, 2.2], "includesElement__electronegativity_sanderson": [0.7622797, 0.4744467, 1.124263], "includesElement__en_ghosh": [0.178052, 0.1248887, 0.1440276], "includesElement__en_pauling": [1.96, 1.33, 2.2], "includesElement__evaporation_heat": [296.0, 567.0, 372.4], "includesElement__fusion_heat": [7.07, 19.2, 17.24], "includesElement__glawe_number": [83, 49, 65], "includesElement__group_id": [14, 4, 10], "includesElement__heat_of_formation": [301.2, 610.0, 376.6], "includesElement__is_radioactive": [false], "includesElement__lattice_constant": [5.82, 3.23, 3.89], "includesElement__mendeleev_number": [90, 44, 68], "includesElement__molar_heat_capacity": [26.99, 25.36, 25.98], "includesElement__period": [5], "includesElement__pettifor_number": [83, 49, 69], "includesElement__specific_heat_capacity": [0.227, 0.278, 0.246], "includesElement__vdw_radius": [217.0, 223.0, 210.0], "includesElement__vdw_radius_alvarez": [242.0, 252.0, 215.0], "includesElement__vdw_radius_mm3": [259.0, 254.0, 237.0], "includesElement__vdw_radius_uff": [439.2, 312.4, 289.9], "includesElement__abundance_sea": [4e-06, 3e-05], "includesElement__atomic_weight_uncertainty": [0.007, 0.002, 0.01], "includesElement__c6_gb": [715.0, 1360.0, 628.0], "includesElement__covalent_radius_bragg": [140.0], "includesElement__electronegativity_allen": [10.79, 7.808, 9.402], "includesElement__en_allen": [10.79, 7.808, 9.402], "includesElement__metallic_radius": [142.0, 145.0, 128.0], "includesElement__metallic_radius_c12": [163.0, 160.0, 137.0], "includesElement__thermal_conductivity": [66.8, 22.7, 71.8], "includesElement__vdw_radius_batsanov": [225.0, 230.0, 205.0], "includesElement__c6": [659.0], "includesElement__vdw_radius_dreiding": [447.0], "includesElement__vdw_radius_bondi": [217.0], "includesElement__discovery_year": [1789, 1803], "includesElement__gas_basicity": [673.4], "includesElement__proton_affinity": [696.0], "formula": ["ZrSnPd"], "mp_id": ["961687"], "thermalConductivity": [14.04], "band_gap": [0.4816], "density": [8.157346], "density_atomic": [21.46606], "deprecated": [false], "efermi": [5.969337], "energy_above_hull": [0.0], "energy_per_atom": [-24.35504], "formation_energy_per_atom": [-0.8695624], "homogeneous_poisson": [0.297], "is_gap_direct": [false], "is_magnetic": [false], "is_metal": [false], "is_stable": [true], "nelements": [3], "nsites": [3], "num_magnetic_sites": [0], "num_unique_magnetic_sites": [0], "theoretical": [true], "total_magnetization": [0.0], "total_magnetization_normalized_formula_units": [0.0], "total_magnetization_normalized_vol": [0.0], "uncorrected_energy_per_atom": [-24.35504], "universal_anisotropy": [0.121], "volume": [64.39817], "cbm": [6.3002], "e_electronic": [20.77804], "e_ionic": [4.045129], "e_total": [24.82317], "equilibrium_reaction_energy_per_atom": [-0.1960735], "n": [4.558294], "vbm": [5.8186], "e_ij_max": [0.1381829]}