{"includesElement": ["", "Zn", "Al", "Te"], "includesElement___series_id": [8, 7, 5], "includesElement__abundance_crust": [70.0, 82300.0, 0.001], "includesElement__atomic_number": [30, 13, 52], "includesElement__atomic_radius": [135.0, 125.0, 140.0], "includesElement__atomic_radius_rahm": [222.0, 239.0, 242.0], "includesElement__atomic_volume": [9.2, 10.0, 20.5], "includesElement__atomic_weight": [65.38, 26.98154, 127.6], "includesElement__covalent_radius_cordero": [122.0, 121.0, 138.0], "includesElement__covalent_radius_pyykko": [118.0, 126.0, 136.0], "includesElement__covalent_radius_pyykko_double": [120.0, 113.0, 128.0], "includesElement__density": [7.134, 2.7, 6.232], "includesElement__dipole_polarizability": [38.67, 57.8, 38.0], "includesElement__dipole_polarizability_unc": [0.3, 1.0, 4.0], "includesElement__electronegativity_allred-rochow": [0.0003124102, 0.0002204586, 0.0003757569], "includesElement__electronegativity_cottrell-sutton": [0.1920011, 0.1666667, 0.2260596], "includesElement__electronegativity_ghosh": [0.1551518, 0.150078, 0.2056992], "includesElement__electronegativity_gordy": [0.03686441, 0.02777778, 0.05110294], "includesElement__electronegativity_mulliken": [4.6971, 3.209299, 5.490268], "includesElement__electronegativity_nagle": [0.6770213, 0.3730192, 0.5404919], "includesElement__electronegativity_pauling": [1.65, 1.61, 2.1], "includesElement__electronegativity_sanderson": [0.8100877, 0.2360927, 0.8622506], "includesElement__en_ghosh": [0.1551518, 0.150078, 0.2056992], "includesElement__en_pauling": [1.65, 1.61, 2.1], "includesElement__evaporation_heat": [114.8, 284.1, 49.8], "includesElement__fusion_heat": [7.28, 10.75, 17.91], "includesElement__glawe_number": [74, 78, 94], "includesElement__group_id": [12, 13, 16], "includesElement__heat_of_formation": [130.4, 330.9, 196.6], "includesElement__is_radioactive": [false], "includesElement__lattice_constant": [2.66, 4.05, 4.45], "includesElement__mendeleev_number": [77, 82, 102], "includesElement__molar_heat_capacity": [25.39, 24.2, 25.73], "includesElement__period": [4, 3, 5], "includesElement__pettifor_number": [76, 80, 92], "includesElement__specific_heat_capacity": [0.388, 0.897, 0.202], "includesElement__vdw_radius": [201.0, 184.0, 206.0], "includesElement__vdw_radius_alvarez": [239.0, 225.0, 199.0], "includesElement__vdw_radius_mm3": [229.0, 236.0, 244.0], "includesElement__vdw_radius_uff": [276.3, 449.9, 447.0], "includesElement__abundance_sea": [0.0049, 0.002], "includesElement__atomic_weight_uncertainty": [0.02, 7e-07, 0.03], "includesElement__c6_gb": [276.0, 520.0, 471.0], "includesElement__covalent_radius_bragg": [132.0, 135.0, 133.0], "includesElement__electronegativity_allen": [9.395, 9.539, 12.76], "includesElement__en_allen": [9.395, 9.539, 12.76], "includesElement__metallic_radius": [121.0, 125.0, 137.0], "includesElement__metallic_radius_c12": [134.0, 143.0, 160.0], "includesElement__thermal_conductivity": [116.0, 237.0, 14.3], "includesElement__vdw_radius_batsanov": [210.0], "includesElement__c6": [284.0, 528.0, 445.0], "includesElement__gas_basicity": [586.0], "includesElement__proton_affinity": [608.6], "includesElement__covalent_radius_pyykko_triple": [111.0, 121.0], "includesElement__discovery_year": [1825, 1782], "includesElement__electron_affinity": [0.43283, 1.970876], "includesElement__is_monoisotopic": [true], "includesElement__vdw_radius_dreiding": [439.0, 423.0], "includesElement__vdw_radius_truhlar": [184.0], "includesElement__vdw_radius_bondi": [206.0], "formula": ["Al2Te4Zn1"], "spacegroup": ["82"], "thermalConductivity": [2.75125], "icsd": ["25639"], "band_gap": [1.6251], "density": [4.827294], "density_atomic": [30.94787], "deprecated": [false], "efermi": [3.55913], "energy_above_hull": [0.0], "energy_per_atom": [-3.751241], "formation_energy_per_atom": [-0.704938], "homogeneous_poisson": [0.228], "is_gap_direct": [true], "is_magnetic": [false], "is_metal": [false], "is_stable": [true], "nelements": [3], "nsites": [7], "num_magnetic_sites": [0], "num_unique_magnetic_sites": [0], "theoretical": [false], "total_magnetization": [0.0], "total_magnetization_normalized_formula_units": [0.0], "total_magnetization_normalized_vol": [0.0], "uncorrected_energy_per_atom": [-18.29654], "universal_anisotropy": [0.631], "volume": [216.6351], "cbm": [5.1488], "e_electronic": [8.271812], "e_ionic": [2.580495], "e_total": [10.85231], "equilibrium_reaction_energy_per_atom": [-0.006250129], "n": [2.876076], "vbm": [3.5237], "e_ij_max": [0.06068718]}