{"includesElement": ["", "Sb", "Zr", "Pt"], "includesElement___series_id": [5, 8], "includesElement__abundance_crust": [0.2, 165.0, 0.005], "includesElement__atomic_number": [51, 40, 78], "includesElement__atomic_radius": [145.0, 155.0, 135.0], "includesElement__atomic_radius_rahm": [246.0, 269.0, 230.0], "includesElement__atomic_volume": [18.4, 14.1, 9.1], "includesElement__atomic_weight": [121.76, 91.224, 195.084], "includesElement__covalent_radius_cordero": [139.0, 175.0, 136.0], "includesElement__covalent_radius_pyykko": [140.0, 154.0, 123.0], "includesElement__covalent_radius_pyykko_double": [133.0, 127.0, 112.0], "includesElement__covalent_radius_pyykko_triple": [127.0, 121.0, 110.0], "includesElement__density": [6.68, 6.52, 21.5], "includesElement__dipole_polarizability": [43.0, 112.0, 48.0], "includesElement__dipole_polarizability_unc": [2.0, 13.0, 4.0], "includesElement__electron_affinity": [1.046, 0.426, 2.128], "includesElement__electronegativity_allred-rochow": [0.0003214286, 0.0001328217, 0.0002346487], "includesElement__electronegativity_cottrell-sutton": [0.212132, 0.1430194, 0.1698876], "includesElement__electronegativity_ghosh": [0.1918774, 0.1248887, 0.25691], "includesElement__electronegativity_gordy": [0.045, 0.02045455, 0.02886179], "includesElement__electronegativity_mulliken": [4.827195, 3.52995, 5.543415], "includesElement__electronegativity_nagle": [0.4880907, 0.3293169, 0.5928156], "includesElement__electronegativity_pauling": [2.05, 1.33, 2.2], "includesElement__electronegativity_sanderson": [0.7762722, 0.4744467, 1.45101], "includesElement__en_ghosh": [0.1918774, 0.1248887, 0.25691], "includesElement__en_pauling": [2.05, 1.33, 2.2], "includesElement__evaporation_heat": [195.2, 567.0, 470.0], "includesElement__fusion_heat": [20.08, 19.2, 21.76], "includesElement__glawe_number": [91, 49, 64], "includesElement__group_id": [15, 4, 10], "includesElement__heat_of_formation": [264.4, 610.0, 565.7], "includesElement__is_radioactive": [false], "includesElement__lattice_constant": [4.51, 3.23, 3.92], "includesElement__mendeleev_number": [96, 44, 69], "includesElement__molar_heat_capacity": [25.23, 25.36, 25.86], "includesElement__period": [5, 6], "includesElement__pettifor_number": [88, 49, 68], "includesElement__specific_heat_capacity": [0.207, 0.278, 0.133], "includesElement__vdw_radius": [206.0, 223.0, 213.0], "includesElement__vdw_radius_alvarez": [247.0, 252.0, 229.0], "includesElement__vdw_radius_mm3": [252.0, 254.0, 239.0], "includesElement__vdw_radius_uff": [442.0, 312.4, 275.4], "includesElement__abundance_sea": [0.00024, 3e-05], "includesElement__atomic_weight_uncertainty": [0.001, 0.002, 0.009], "includesElement__c6_gb": [504.0, 1360.0, 470.0], "includesElement__covalent_radius_bragg": [140.0], "includesElement__electronegativity_allen": [11.74, 7.808, 10.16], "includesElement__en_allen": [11.74, 7.808, 10.16], "includesElement__metallic_radius": [139.0, 145.0, 130.0], "includesElement__metallic_radius_c12": [166.0, 160.0, 139.0], "includesElement__thermal_conductivity": [24.43, 22.7, 71.6], "includesElement__vdw_radius_batsanov": [220.0, 230.0, 205.0], "includesElement__c6": [492.0], "includesElement__vdw_radius_dreiding": [435.0], "includesElement__vdw_radius_truhlar": [206.0], "includesElement__discovery_year": [1789, 1735], "formula": ["Pt1Sb2Zr6"], "spacegroup": ["189"], "thermalConductivity": [5.91723], "icsd": ["157366"], "band_gap": [0.0], "density": [8.24726], "density_atomic": [22.05723], "deprecated": [false], "efermi": [6.207429], "energy_above_hull": [0.0], "energy_per_atom": [-27.42306], "formation_energy_per_atom": [-0.8231638], "homogeneous_poisson": [0.283], "is_gap_direct": [false], "is_magnetic": [false], "is_metal": [true], "is_stable": [true], "nelements": [3], "nsites": [9], "num_magnetic_sites": [0], "num_unique_magnetic_sites": [0], "theoretical": [false], "total_magnetization": [4.5e-06], "total_magnetization_normalized_formula_units": [4.5e-06], "total_magnetization_normalized_vol": [2.266831e-08], "uncorrected_energy_per_atom": [-27.42306], "universal_anisotropy": [0.179], "volume": [198.515], "equilibrium_reaction_energy_per_atom": [-0.04514266]}