{"includesElement": ["", "Pb", "U"], "includesElement___series_id": [7, 10], "includesElement__abundance_crust": [14.0, 2.7], "includesElement__atomic_number": [82, 92], "includesElement__atomic_radius": [180.0, 175.0], "includesElement__atomic_radius_rahm": [249.0, 283.0], "includesElement__atomic_volume": [18.3, 12.5], "includesElement__atomic_weight": [207.2, 238.0289], "includesElement__covalent_radius_cordero": [146.0, 196.0], "includesElement__covalent_radius_pyykko": [144.0, 170.0], "includesElement__covalent_radius_pyykko_double": [135.0, 134.0], "includesElement__covalent_radius_pyykko_triple": [137.0, 118.0], "includesElement__density": [11.3, 19.1], "includesElement__dipole_polarizability": [47.0, 129.0], "includesElement__dipole_polarizability_unc": [3.0, 17.0], "includesElement__electron_affinity": [0.3567432], "includesElement__electronegativity_allred-rochow": [0.000272473, 0.0001038062], "includesElement__electronegativity_cottrell-sutton": [0.1980811, 0.1328422], "includesElement__electronegativity_ghosh": [0.177911, 0.13207], "includesElement__electronegativity_gordy": [0.03923611, 0.01764706], "includesElement__electronegativity_mulliken": [3.886711, 3.097025], "includesElement__electronegativity_nagle": [0.4398663, 0.3596283], "includesElement__electronegativity_pauling": [1.8, 1.7], "includesElement__electronegativity_sanderson": [0.9313226, 0.618118], "includesElement__en_ghosh": [0.177911, 0.13207], "includesElement__en_pauling": [1.8, 1.7], "includesElement__evaporation_heat": [177.8, 417.0], "includesElement__fusion_heat": [4.77, 12.6], "includesElement__glawe_number": [82, 36], "includesElement__group_id": [14], "includesElement__heat_of_formation": [195.2, 533.0], "includesElement__is_radioactive": [false, true], "includesElement__lattice_constant": [4.95, 2.85], "includesElement__mendeleev_number": [91, 20], "includesElement__molar_heat_capacity": [26.84, 27.665], "includesElement__period": [6, 7], "includesElement__pettifor_number": [82, 45], "includesElement__specific_heat_capacity": [0.13, 0.116], "includesElement__vdw_radius": [202.0, 241.0], "includesElement__vdw_radius_alvarez": [260.0, 271.0], "includesElement__vdw_radius_mm3": [274.0, 252.0], "includesElement__vdw_radius_uff": [429.7, 339.5], "includesElement__abundance_sea": [3e-05, 0.0032], "includesElement__atomic_weight_uncertainty": [0.1, 3e-05], "includesElement__c6_gb": [534.0], "includesElement__electronegativity_allen": [10.97], "includesElement__en_allen": [10.97], "includesElement__metallic_radius": [150.0], "includesElement__metallic_radius_c12": [170.0], "includesElement__thermal_conductivity": [35.3, 27.5], "includesElement__vdw_radius_batsanov": [230.0], "includesElement__vdw_radius_bondi": [202.0], "includesElement__discovery_year": [1789], "includesElement__gas_basicity": [973.2], "includesElement__proton_affinity": [995.2], "formula": ["Pb3U1"], "spacegroup": ["221"], "thermalConductivity": [1.42126], "icsd": ["105637"], "band_gap": [0.0], "density": [12.59638], "density_atomic": [28.33052], "deprecated": [false], "efermi": [8.809887], "energy_above_hull": [0.1573647], "energy_per_atom": [-62.042], "formation_energy_per_atom": [0.1573647], "homogeneous_poisson": [-1.3], "is_gap_direct": [false], "is_magnetic": [true], "is_metal": [true], "is_stable": [false], "nelements": [2], "nsites": [4], "num_magnetic_sites": [1], "num_unique_magnetic_sites": [1], "theoretical": [false], "total_magnetization": [2.638915], "total_magnetization_normalized_formula_units": [2.638915], "total_magnetization_normalized_vol": [0.02328686], "uncorrected_energy_per_atom": [-5.449973], "universal_anisotropy": [-5.02], "volume": [113.3221]}