{"includesElement": ["", "Hg", "O", "Cl"], "includesElement___series_id": [8, 1, 6], "includesElement__abundance_crust": [0.085, 461000.0, 145.0], "includesElement__atomic_number": [80, 8, 17], "includesElement__atomic_radius": [150.0, 60.0, 100.0], "includesElement__atomic_radius_rahm": [229.0, 171.0, 206.0], "includesElement__atomic_volume": [14.8, 14.0, 18.7], "includesElement__atomic_weight": [200.592, 15.999, 35.45], "includesElement__covalent_radius_cordero": [132.0, 66.0, 102.0], "includesElement__covalent_radius_pyykko": [133.0, 63.0, 99.0], "includesElement__covalent_radius_pyykko_double": [142.0, 57.0, 95.0], "includesElement__density": [13.5336, 0.001308, 0.002898], "includesElement__dipole_polarizability": [33.91, 5.3, 14.6], "includesElement__dipole_polarizability_unc": [0.34, 0.2, 0.1], "includesElement__electronegativity_allred-rochow": [0.0002459155, 0.001146384, 0.0006223855], "includesElement__electronegativity_cottrell-sutton": [0.1808501, 0.2687419, 0.248226], "includesElement__electronegativity_ghosh": [0.169, 0.304575, 0.263803], "includesElement__electronegativity_gordy": [0.03270677, 0.07222222, 0.06161616], "includesElement__electronegativity_mulliken": [5.218752, 7.539584, 8.290178], "includesElement__electronegativity_nagle": [0.7073231, 1.042218, 0.7826755], "includesElement__electronegativity_pauling": [1.9, 3.44, 3.16], "includesElement__electronegativity_sanderson": [1.164789, 0.9416494, 0.8123773], "includesElement__en_ghosh": [0.169, 0.304575, 0.263803], "includesElement__en_pauling": [1.9, 3.44, 3.16], "includesElement__evaporation_heat": [58.5, 20.41], "includesElement__fusion_heat": [2.295, 6.41], "includesElement__glawe_number": [76, 97, 101], "includesElement__group_id": [12, 16, 17], "includesElement__heat_of_formation": [61.38, 249.229, 121.302], "includesElement__is_radioactive": [false], "includesElement__lattice_constant": [2.99, 6.83, 6.24], "includesElement__mendeleev_number": [79, 99, 107], "includesElement__molar_heat_capacity": [27.983, 29.378, 33.949], "includesElement__period": [6, 2, 3], "includesElement__pettifor_number": [74, 101, 99], "includesElement__specific_heat_capacity": [0.14, 0.918, 0.479], "includesElement__vdw_radius": [223.0, 152.0, 175.0], "includesElement__vdw_radius_alvarez": [245.0, 150.0, 182.0], "includesElement__vdw_radius_mm3": [253.0, 182.0, 207.0], "includesElement__vdw_radius_uff": [270.5, 350.0, 394.7], "includesElement__abundance_sea": [3e-05, 857000.0, 19400.0], "includesElement__atomic_weight_uncertainty": [0.003], "includesElement__c6_gb": [268.0, 16.7, 97.1], "includesElement__electronegativity_allen": [10.44, 21.36, 16.97], "includesElement__en_allen": [10.44, 21.36, 16.97], "includesElement__metallic_radius": [139.0], "includesElement__metallic_radius_c12": [151.0, 91.0], "includesElement__thermal_conductivity": [8.3, 0.027, 0.009], "includesElement__vdw_radius_batsanov": [205.0, 155.0, 180.0], "includesElement__covalent_radius_pyykko_triple": [53.0, 93.0], "includesElement__discovery_year": [1774], "includesElement__electron_affinity": [1.461113, 3.612725], "includesElement__covalent_radius_bragg": [65.0, 105.0], "includesElement__c6": [15.6, 94.6], "includesElement__vdw_radius_dreiding": [340.46, 395.03], "includesElement__gas_basicity": [459.6, 490.1], "includesElement__proton_affinity": [485.2, 513.6], "includesElement__vdw_radius_bondi": [152.0, 175.0], "includesElement__vdw_radius_rt": [158.0, 176.0], "formula": ["Cl16Hg12O4"], "spacegroup": ["198"], "thermalConductivity": [0.354789, 0.294549, 0.312538], "icsd": ["28377", "28782", "35649"], "band_gap": [1.4621], "density": [5.81585], "density_atomic": [27.10942], "deprecated": [false], "efermi": [-0.9476013], "energy_above_hull": [0.0009795701], "energy_per_atom": [-22.94511], "formation_energy_per_atom": [-0.6108816], "is_gap_direct": [false], "is_magnetic": [false], "is_metal": [false], "is_stable": [false], "nelements": [3], "nsites": [32], "num_magnetic_sites": [0], "num_unique_magnetic_sites": [0], "theoretical": [false], "total_magnetization": [0.0007636], "total_magnetization_normalized_formula_units": [0.0001909], "total_magnetization_normalized_vol": [8.802291e-07], "uncorrected_energy_per_atom": [-2.185001], "volume": [867.5014], "cbm": [0.4882], "e_electronic": [4.143529], "e_ionic": [8.540328], "e_total": [12.68386], "n": [2.035566], "vbm": [-0.9739], "e_ij_max": [0.2687]}