{"includesElement": ["", "K", "Au"], "includesElement___series_id": [3, 8], "includesElement__abundance_crust": [20900.0, 0.004], "includesElement__atomic_number": [19, 79], "includesElement__atomic_radius": [220.0, 135.0], "includesElement__atomic_radius_rahm": [234.0, 226.0], "includesElement__atomic_volume": [45.3, 10.2], "includesElement__atomic_weight": [39.0983, 196.9666], "includesElement__covalent_radius_cordero": [203.0, 136.0], "includesElement__covalent_radius_pyykko": [196.0, 124.0], "includesElement__covalent_radius_pyykko_double": [193.0, 121.0], "includesElement__density": [0.89, 19.3], "includesElement__dipole_polarizability": [289.7, 36.0], "includesElement__dipole_polarizability_unc": [0.3, 3.0], "includesElement__discovery_year": [1807], "includesElement__electron_affinity": [0.50147, 2.30863], "includesElement__electronegativity_allred-rochow": [5.726781e-05, 0.0002406348], "includesElement__electronegativity_cottrell-sutton": [0.1059457, 0.1727388], "includesElement__electronegativity_ghosh": [0.0981896, 0.26137], "includesElement__electronegativity_gordy": [0.01122449, 0.02983871], "includesElement__electronegativity_mulliken": [2.421067, 5.767091], "includesElement__electronegativity_nagle": [0.1511299, 0.67354], "includesElement__electronegativity_pauling": [0.82, 2.4], "includesElement__electronegativity_sanderson": [0.1218383, 1.426701], "includesElement__en_ghosh": [0.0981896, 0.26137], "includesElement__en_pauling": [0.82, 2.4], "includesElement__evaporation_heat": [2.33, 340.0], "includesElement__fusion_heat": [102.5, 12.68], "includesElement__glawe_number": [10, 66], "includesElement__group_id": [1, 11], "includesElement__heat_of_formation": [89.0, 368.2], "includesElement__is_radioactive": [false], "includesElement__lattice_constant": [5.23, 4.08], "includesElement__mendeleev_number": [3, 73], "includesElement__molar_heat_capacity": [29.6, 25.418], "includesElement__period": [4, 6], "includesElement__pettifor_number": [10, 70], "includesElement__specific_heat_capacity": [0.757, 0.129], "includesElement__vdw_radius": [275.0, 214.0], "includesElement__vdw_radius_alvarez": [273.0, 232.0], "includesElement__vdw_radius_mm3": [309.0, 243.0], "includesElement__vdw_radius_uff": [381.2, 329.3], "includesElement__abundance_sea": [399.0, 4e-06], "includesElement__atomic_weight_uncertainty": [0.0001, 5e-06], "includesElement__c6_gb": [3910.0, 427.0], "includesElement__covalent_radius_bragg": [207.0], "includesElement__electronegativity_allen": [4.34, 11.33], "includesElement__en_allen": [4.34, 11.33], "includesElement__metallic_radius": [203.0, 134.0], "includesElement__metallic_radius_c12": [235.0, 144.0], "includesElement__thermal_conductivity": [79.0, 318.0], "includesElement__vdw_radius_batsanov": [280.0, 210.0], "includesElement__c6": [3923.0], "includesElement__vdw_radius_bondi": [275.0], "includesElement__covalent_radius_pyykko_triple": [123.0], "includesElement__is_monoisotopic": [true], "formula": ["Au5K1"], "spacegroup": ["191"], "thermalConductivity": [0.681375], "icsd": ["106286"], "band_gap": [0.0], "density": [13.2082], "density_atomic": [21.45483], "deprecated": [false], "efermi": [3.3345], "energy_above_hull": [0.0], "energy_per_atom": [-43.41321], "formation_energy_per_atom": [-0.2560283], "is_gap_direct": [false], "is_magnetic": [false], "is_metal": [true], "is_stable": [true], "nelements": [2], "nsites": [6], "num_magnetic_sites": [0], "num_unique_magnetic_sites": [0], "theoretical": [false], "total_magnetization": [9e-07], "total_magnetization_normalized_formula_units": [9e-07], "total_magnetization_normalized_vol": [6.991433e-09], "uncorrected_energy_per_atom": [-43.41321], "volume": [128.729], "equilibrium_reaction_energy_per_atom": [-0.08329625]}