{"includesElement": ["", "Si", "Nb", "Co"], "includesElement___series_id": [5, 8], "includesElement__abundance_crust": [282000.0, 20.0, 25.0], "includesElement__atomic_number": [14, 41, 27], "includesElement__atomic_radius": [110.0, 145.0, 135.0], "includesElement__atomic_radius_rahm": [232.0, 251.0, 233.0], "includesElement__atomic_volume": [12.1, 10.8, 6.7], "includesElement__atomic_weight": [28.085, 92.90637, 58.93319], "includesElement__covalent_radius_cordero": [111.0, 164.0, 138.0], "includesElement__covalent_radius_pyykko": [116.0, 147.0, 111.0], "includesElement__covalent_radius_pyykko_double": [107.0, 125.0, 103.0], "includesElement__covalent_radius_pyykko_triple": [102.0, 116.0, 96.0], "includesElement__density": [2.3296, 8.57, 8.86], "includesElement__dipole_polarizability": [37.3, 98.0, 55.0], "includesElement__dipole_polarizability_unc": [0.7, 8.0, 4.0], "includesElement__discovery_year": [1824, 1801, 1739], "includesElement__electron_affinity": [1.389521, 0.917406, 0.6622565], "includesElement__electronegativity_allred-rochow": [0.0003084126, 0.0001295756, 0.0003165327], "includesElement__electronegativity_cottrell-sutton": [0.1891451, 0.1380131, 0.1874437], "includesElement__electronegativity_ghosh": [0.178503, 0.1280782, 0.1432363], "includesElement__electronegativity_gordy": [0.03577586, 0.01904762, 0.03513514], "includesElement__electronegativity_mulliken": [4.770602, 3.838128, 4.271633], "includesElement__electronegativity_nagle": [0.4750986, 0.3708924, 0.5469655], "includesElement__electronegativity_pauling": [1.9, 1.6, 1.88], "includesElement__electronegativity_sanderson": [0.3468158, 0.5561695, 0.8832424], "includesElement__en_ghosh": [0.178503, 0.1280782, 0.1432363], "includesElement__en_pauling": [1.9, 1.6, 1.88], "includesElement__evaporation_heat": [383.0, 680.0, 389.1], "includesElement__fusion_heat": [50.6, 26.8, 15.48], "includesElement__glawe_number": [85, 53, 70], "includesElement__group_id": [14, 5, 9], "includesElement__heat_of_formation": [450.0, 733.0, 426.7], "includesElement__is_radioactive": [false], "includesElement__lattice_constant": [5.43, 3.3, 2.51], "includesElement__mendeleev_number": [88, 48, 63], "includesElement__molar_heat_capacity": [19.99, 24.6, 24.81], "includesElement__period": [3, 5, 4], "includesElement__pettifor_number": [85, 52, 64], "includesElement__specific_heat_capacity": [0.712, 0.265, 0.421], "includesElement__vdw_radius": [210.0, 218.0, 200.0], "includesElement__vdw_radius_alvarez": [219.0, 256.0, 240.0], "includesElement__vdw_radius_mm3": [229.0, 243.0, 223.0], "includesElement__vdw_radius_uff": [429.5, 316.5, 287.2], "includesElement__abundance_sea": [2.2, 1e-05, 2e-05], "includesElement__c6_gb": [308.0, 1140.0, 461.0], "includesElement__covalent_radius_bragg": [117.0, 137.0], "includesElement__electronegativity_allen": [11.33, 8.34, 10.86], "includesElement__en_allen": [11.33, 8.34, 10.86], "includesElement__metallic_radius": [117.0, 134.0, 116.0], "includesElement__metallic_radius_c12": [138.0, 146.0, 125.0], "includesElement__thermal_conductivity": [149.0, 53.7, 100.0], "includesElement__vdw_radius_batsanov": [210.0, 215.0, 200.0], "includesElement__c6": [305.0, 408.0], "includesElement__vdw_radius_dreiding": [427.0], "includesElement__gas_basicity": [814.1, 719.8], "includesElement__proton_affinity": [837.0, 742.7], "includesElement__vdw_radius_bondi": [210.0], "includesElement__atomic_weight_uncertainty": [2e-05, 4e-06], "includesElement__is_monoisotopic": [true], "formula": ["Co2Nb8Si2"], "spacegroup": ["124"], "thermalConductivity": [11.4202], "icsd": ["43233"], "band_gap": [0.0], "density": [7.816359], "density_atomic": [16.23937], "deprecated": [false], "efermi": [5.79495], "energy_above_hull": [0.012776], "energy_per_atom": [-9.164011], "formation_energy_per_atom": [-0.3366852], "homogeneous_poisson": [0.279], "is_gap_direct": [false], "is_magnetic": [false], "is_metal": [true], "is_stable": [false], "nelements": [3], "nsites": [12], "num_magnetic_sites": [0], "num_unique_magnetic_sites": [0], "theoretical": [false], "total_magnetization": [0.0001486], "total_magnetization_normalized_formula_units": [7.43e-05], "total_magnetization_normalized_vol": [7.625499e-07], "uncorrected_energy_per_atom": [-9.175844], "universal_anisotropy": [0.021], "volume": [194.8725]}