{"includesElement": ["", "Ni", "Zr", "B"], "includesElement___series_id": [8, 5], "includesElement__abundance_crust": [84.0, 165.0, 10.0], "includesElement__atomic_number": [28, 40, 5], "includesElement__atomic_radius": [135.0, 155.0, 85.0], "includesElement__atomic_radius_rahm": [229.0, 269.0, 205.0], "includesElement__atomic_volume": [6.6, 14.1, 4.6], "includesElement__atomic_weight": [58.6934, 91.224, 10.81], "includesElement__covalent_radius_cordero": [124.0, 175.0, 84.0], "includesElement__covalent_radius_pyykko": [110.0, 154.0, 85.0], "includesElement__covalent_radius_pyykko_double": [101.0, 127.0, 78.0], "includesElement__covalent_radius_pyykko_triple": [101.0, 121.0, 73.0], "includesElement__density": [8.9, 6.52, 2.34], "includesElement__dipole_polarizability": [49.0, 112.0, 20.5], "includesElement__dipole_polarizability_unc": [3.0, 13.0, 0.1], "includesElement__discovery_year": [1751, 1789, 1808], "includesElement__electron_affinity": [1.156, 0.426, 0.279723], "includesElement__electronegativity_allred-rochow": [0.0003347107, 0.0001328217, 0.0003598616], "includesElement__electronegativity_cottrell-sutton": [0.1918806, 0.1430194, 0.1748949], "includesElement__electronegativity_ghosh": [0.1472068, 0.1248887, 0.184886], "includesElement__electronegativity_gordy": [0.03681818, 0.02045455, 0.03058824], "includesElement__electronegativity_mulliken": [4.397939, 3.52995, 4.288871], "includesElement__electronegativity_nagle": [0.588755, 0.3293169, 0.5269739], "includesElement__electronegativity_pauling": [1.91, 1.33, 2.04], "includesElement__electronegativity_sanderson": [0.937704, 0.4744467, 0.2546274], "includesElement__en_ghosh": [0.1472068, 0.1248887, 0.184886], "includesElement__en_pauling": [1.91, 1.33, 2.04], "includesElement__evaporation_heat": [378.6, 567.0, 504.5], "includesElement__fusion_heat": [17.61, 19.2, 23.6], "includesElement__glawe_number": [69, 49, 86], "includesElement__group_id": [10, 4, 13], "includesElement__heat_of_formation": [430.1, 610.0, 565.0], "includesElement__is_radioactive": [false], "includesElement__lattice_constant": [3.52, 3.23, 8.73], "includesElement__mendeleev_number": [67, 44, 81], "includesElement__molar_heat_capacity": [26.07, 25.36, 11.087], "includesElement__period": [4, 5, 2], "includesElement__pettifor_number": [67, 49, 86], "includesElement__specific_heat_capacity": [0.444, 0.278, 1.026], "includesElement__vdw_radius": [197.0, 223.0, 192.0], "includesElement__vdw_radius_alvarez": [240.0, 252.0, 191.0], "includesElement__vdw_radius_mm3": [222.0, 254.0, 215.0], "includesElement__vdw_radius_uff": [283.4, 312.4, 408.3], "includesElement__abundance_sea": [0.00056, 3e-05, 4.44], "includesElement__atomic_weight_uncertainty": [0.0004, 0.002], "includesElement__c6_gb": [393.0, 1360.0, 99.2], "includesElement__covalent_radius_bragg": [135.0], "includesElement__electronegativity_allen": [11.13, 7.808, 12.13], "includesElement__en_allen": [11.13, 7.808, 12.13], "includesElement__metallic_radius": [115.0, 145.0, 80.0], "includesElement__metallic_radius_c12": [124.0, 160.0, 98.0], "includesElement__thermal_conductivity": [90.9, 22.7, 27.4], "includesElement__vdw_radius_batsanov": [200.0, 230.0, 180.0], "includesElement__c6": [373.0, 99.5], "includesElement__gas_basicity": [714.1], "includesElement__proton_affinity": [737.0], "includesElement__vdw_radius_dreiding": [402.0], "includesElement__vdw_radius_truhlar": [192.0], "formula": ["B6Ni21Zr2"], "spacegroup": ["225"], "thermalConductivity": [2.3532], "icsd": ["409960"], "band_gap": [0.0], "density": [8.500318], "density_atomic": [9.968758], "deprecated": [false], "efermi": [7.912072], "energy_above_hull": [0.0], "energy_per_atom": [-6.529571], "formation_energy_per_atom": [-0.3725153], "is_gap_direct": [false], "is_magnetic": [false], "is_metal": [true], "is_stable": [true], "nelements": [3], "nsites": [29], "num_magnetic_sites": [0], "num_unique_magnetic_sites": [0], "theoretical": [false], "total_magnetization": [5.15e-05], "total_magnetization_normalized_formula_units": [5.15e-05], "total_magnetization_normalized_vol": [1.781428e-07], "uncorrected_energy_per_atom": [-12.12712], "volume": [289.094], "equilibrium_reaction_energy_per_atom": [-0.0001331416]}