{"includesElement": ["", "O", "Rb", "U"], "includesElement___series_id": [1, 3, 10], "includesElement__abundance_crust": [461000.0, 90.0, 2.7], "includesElement__atomic_number": [8, 37, 92], "includesElement__atomic_radius": [60.0, 235.0, 175.0], "includesElement__atomic_radius_rahm": [171.0, 240.0, 283.0], "includesElement__atomic_volume": [14.0, 55.9, 12.5], "includesElement__atomic_weight": [15.999, 85.4678, 238.0289], "includesElement__covalent_radius_cordero": [66.0, 220.0, 196.0], "includesElement__covalent_radius_pyykko": [63.0, 210.0, 170.0], "includesElement__covalent_radius_pyykko_double": [57.0, 202.0, 134.0], "includesElement__covalent_radius_pyykko_triple": [53.0, 118.0], "includesElement__density": [0.001308, 1.53, 19.1], "includesElement__dipole_polarizability": [5.3, 319.8, 129.0], "includesElement__dipole_polarizability_unc": [0.2, 0.3, 17.0], "includesElement__discovery_year": [1774, 1861, 1789], "includesElement__electron_affinity": [1.461113, 0.48592], "includesElement__electronegativity_allred-rochow": [0.001146384, 4.988662e-05, 0.0001038062], "includesElement__electronegativity_cottrell-sutton": [0.2687419, 0.1023533, 0.1328422], "includesElement__electronegativity_ghosh": [0.304575, 0.104686, 0.13207], "includesElement__electronegativity_gordy": [0.07222222, 0.01047619, 0.01764706], "includesElement__electronegativity_mulliken": [7.539584, 2.331524, 3.097025], "includesElement__electronegativity_nagle": [1.042218, 0.1462314, 0.3596283], "includesElement__electronegativity_pauling": [3.44, 0.82, 1.7], "includesElement__electronegativity_sanderson": [0.9416494, 0.1764136, 0.618118], "includesElement__en_ghosh": [0.304575, 0.104686, 0.13207], "includesElement__en_pauling": [3.44, 0.82, 1.7], "includesElement__glawe_number": [97, 9, 36], "includesElement__group_id": [16, 1], "includesElement__heat_of_formation": [249.229, 80.9, 533.0], "includesElement__is_radioactive": [false, true], "includesElement__lattice_constant": [6.83, 5.59, 2.85], "includesElement__mendeleev_number": [99, 4, 20], "includesElement__molar_heat_capacity": [29.378, 31.06, 27.665], "includesElement__period": [2, 5, 7], "includesElement__pettifor_number": [101, 9, 45], "includesElement__specific_heat_capacity": [0.918, 0.363, 0.116], "includesElement__vdw_radius": [152.0, 303.0, 241.0], "includesElement__vdw_radius_alvarez": [150.0, 321.0, 271.0], "includesElement__vdw_radius_mm3": [182.0, 325.0, 252.0], "includesElement__vdw_radius_uff": [350.0, 411.4, 339.5], "includesElement__abundance_sea": [857000.0, 0.12, 0.0032], "includesElement__c6_gb": [16.7, 4660.0], "includesElement__covalent_radius_bragg": [65.0, 225.0], "includesElement__electronegativity_allen": [21.36, 4.177], "includesElement__en_allen": [21.36, 4.177], "includesElement__thermal_conductivity": [0.027, 58.2, 27.5], "includesElement__vdw_radius_batsanov": [155.0, 290.0, 230.0], "includesElement__c6": [15.6, 4769.0], "includesElement__vdw_radius_dreiding": [340.46], "includesElement__gas_basicity": [459.6, 973.2], "includesElement__proton_affinity": [485.2, 995.2], "includesElement__vdw_radius_bondi": [152.0], "includesElement__vdw_radius_rt": [158.0], "includesElement__evaporation_heat": [75.8, 417.0], "includesElement__fusion_heat": [2.2, 12.6], "includesElement__atomic_weight_uncertainty": [0.0003, 3e-05], "includesElement__metallic_radius": [216.0], "includesElement__metallic_radius_c12": [248.0], "includesElement__vdw_radius_truhlar": [303.0], "formula": ["O3Rb1U1"], "spacegroup": ["221"], "thermalConductivity": [10.1735], "icsd": ["99548"], "band_gap": [0.4542], "density": [7.607262], "density_atomic": [16.21824], "deprecated": [false], "efermi": [4.975172], "energy_above_hull": [0.0], "energy_per_atom": [-8.727751], "formation_energy_per_atom": [-3.302003], "homogeneous_poisson": [0.276], "is_gap_direct": [false], "is_magnetic": [true], "is_metal": [false], "is_stable": [true], "nelements": [3], "nsites": [5], "num_magnetic_sites": [1], "num_unique_magnetic_sites": [1], "theoretical": [false], "total_magnetization": [0.9999999], "total_magnetization_normalized_formula_units": [0.9999999], "total_magnetization_normalized_vol": [0.0123318], "uncorrected_energy_per_atom": [-25.58988], "universal_anisotropy": [0.495], "volume": [81.09118], "cbm": [5.3136], "equilibrium_reaction_energy_per_atom": [-0.04909973], "vbm": [4.8594]}