{"includesElement": ["", "Ba", "Na", "Bi"], "includesElement___series_id": [4, 3, 7], "includesElement__abundance_crust": [425.0, 23600.0, 0.0085], "includesElement__atomic_number": [56, 11, 83], "includesElement__atomic_radius": [215.0, 180.0, 160.0], "includesElement__atomic_radius_rahm": [293.0, 225.0, 250.0], "includesElement__atomic_volume": [39.0, 23.7, 21.3], "includesElement__atomic_weight": [137.327, 22.98977, 208.9804], "includesElement__covalent_radius_cordero": [215.0, 166.0, 148.0], "includesElement__covalent_radius_pyykko": [196.0, 155.0, 151.0], "includesElement__covalent_radius_pyykko_double": [161.0, 160.0, 141.0], "includesElement__covalent_radius_pyykko_triple": [149.0, 135.0], "includesElement__density": [3.62, 0.97, 9.79], "includesElement__dipole_polarizability": [272.0, 162.7, 48.0], "includesElement__dipole_polarizability_unc": [10.0, 0.5, 4.0], "includesElement__discovery_year": [1808, 1807], "includesElement__electron_affinity": [0.14462, 0.547926, 0.942362], "includesElement__electronegativity_allred-rochow": [7.418784e-05, 9.157128e-05, 0.0002763037], "includesElement__electronegativity_cottrell-sutton": [0.1205853, 0.1191367, 0.2042593], "includesElement__electronegativity_ghosh": [0.1586786, 0.093214, 0.182377], "includesElement__electronegativity_gordy": [0.01454082, 0.01419355, 0.04172185], "includesElement__electronegativity_mulliken": [2.678142, 2.843501, 4.113939], "includesElement__electronegativity_nagle": [0.1944556, 0.1831769, 0.470518], "includesElement__electronegativity_pauling": [0.89, 0.93, 1.9], "includesElement__electronegativity_sanderson": [0.3032951, 0.09459764, 0.8136501], "includesElement__en_ghosh": [0.1586786, 0.093214, 0.182377], "includesElement__en_pauling": [0.89, 0.93, 1.9], "includesElement__evaporation_heat": [142.0, 97.9, 172.0], "includesElement__fusion_heat": [7.66, 2.64, 11.0], "includesElement__glawe_number": [14, 11, 92], "includesElement__group_id": [2, 1, 15], "includesElement__heat_of_formation": [179.1, 107.5, 209.6], "includesElement__is_radioactive": [false], "includesElement__lattice_constant": [5.02, 4.23, 4.75], "includesElement__mendeleev_number": [9, 2, 97], "includesElement__molar_heat_capacity": [28.07, 28.23, 25.52], "includesElement__period": [6, 3], "includesElement__pettifor_number": [14, 11, 87], "includesElement__specific_heat_capacity": [0.204, 1.228, 0.122], "includesElement__vdw_radius": [268.0, 227.0, 207.0], "includesElement__vdw_radius_alvarez": [303.0, 250.0, 254.0], "includesElement__vdw_radius_mm3": [307.0, 270.0, 266.0], "includesElement__vdw_radius_uff": [370.3, 298.3, 437.0], "includesElement__abundance_sea": [0.013, 10800.0, 2e-05], "includesElement__atomic_weight_uncertainty": [0.007, 2e-08, 1e-05], "includesElement__c6_gb": [5540.0, 1570.0, 513.0], "includesElement__covalent_radius_bragg": [210.0, 177.0, 148.0], "includesElement__electronegativity_allen": [5.211, 5.14, 11.9], "includesElement__en_allen": [5.211, 5.14, 11.9], "includesElement__metallic_radius": [198.0, 157.0, 151.0], "includesElement__metallic_radius_c12": [222.0, 190.0, 178.0], "includesElement__vdw_radius_batsanov": [270.0, 240.0, 230.0], "includesElement__vdw_radius_truhlar": [268.0, 207.0], "includesElement__thermal_conductivity": [142.0, 7.9], "includesElement__c6": [1518.0], "includesElement__is_monoisotopic": [true], "includesElement__vdw_radius_bondi": [227.0], "formula": ["Ba3Bi3Na3"], "spacegroup": ["189"], "thermalConductivity": [1.15407], "icsd": ["413810"], "band_gap": [0.2355], "density": [5.442433], "density_atomic": [37.55871], "deprecated": [false], "efermi": [2.530675], "energy_above_hull": [0.0], "energy_per_atom": [-3.139124], "formation_energy_per_atom": [-0.7720623], "homogeneous_poisson": [0.217], "is_gap_direct": [true], "is_magnetic": [false], "is_metal": [false], "is_stable": [true], "nelements": [3], "nsites": [9], "num_magnetic_sites": [0], "num_unique_magnetic_sites": [0], "theoretical": [false], "total_magnetization": [0.0], "total_magnetization_normalized_formula_units": [0.0], "total_magnetization_normalized_vol": [0.0], "uncorrected_energy_per_atom": [-30.44237], "universal_anisotropy": [0.153], "volume": [338.0284], "cbm": [2.6833], "e_electronic": [15.27044], "e_ionic": [9.032396], "e_total": [24.30284], "equilibrium_reaction_energy_per_atom": [-0.09607375], "n": [3.907741], "vbm": [2.4478], "e_ij_max": [0.1261231]}