{"includesElement": ["", "In", "Br"], "includesElement___series_id": [7, 6], "includesElement__abundance_crust": [0.25, 2.4], "includesElement__atomic_number": [49, 35], "includesElement__atomic_radius": [155.0, 115.0], "includesElement__atomic_radius_rahm": [246.0, 219.0], "includesElement__atomic_volume": [15.7, 23.5], "includesElement__atomic_weight": [114.818, 79.904], "includesElement__covalent_radius_cordero": [142.0, 120.0], "includesElement__covalent_radius_pyykko": [142.0, 114.0], "includesElement__covalent_radius_pyykko_double": [136.0, 109.0], "includesElement__covalent_radius_pyykko_triple": [146.0, 110.0], "includesElement__density": [7.31, 3.1028], "includesElement__dipole_polarizability": [65.0, 21.0], "includesElement__dipole_polarizability_unc": [4.0, 1.0], "includesElement__discovery_year": [1863, 1826], "includesElement__electron_affinity": [0.3, 3.363588], "includesElement__electronegativity_allred-rochow": [0.0002479667, 0.0005847953], "includesElement__electronegativity_cottrell-sutton": [0.1876467, 0.2581989], "includesElement__electronegativity_ghosh": [0.16423, 0.2412578], "includesElement__electronegativity_gordy": [0.03521127, 0.06666667], "includesElement__electronegativity_mulliken": [3.043178, 7.588699], "includesElement__electronegativity_nagle": [0.3587038, 0.6933613], "includesElement__electronegativity_pauling": [1.78, 2.96], "includesElement__electronegativity_sanderson": [0.7172747, 1.049026], "includesElement__en_ghosh": [0.16423, 0.2412578], "includesElement__en_pauling": [1.78, 2.96], "includesElement__evaporation_heat": [225.1, 29.56], "includesElement__fusion_heat": [3.24, 10.57], "includesElement__glawe_number": [80, 100], "includesElement__group_id": [13, 17], "includesElement__heat_of_formation": [243.0, 111.85], "includesElement__is_radioactive": [false], "includesElement__lattice_constant": [4.59, 6.67], "includesElement__mendeleev_number": [84, 108], "includesElement__molar_heat_capacity": [26.74, 75.69], "includesElement__period": [5, 4], "includesElement__pettifor_number": [79, 98], "includesElement__specific_heat_capacity": [0.233, 0.474], "includesElement__vdw_radius": [193.0, 185.0], "includesElement__vdw_radius_alvarez": [243.0, 186.0], "includesElement__vdw_radius_mm3": [264.0, 222.0], "includesElement__vdw_radius_uff": [446.3, 418.9], "includesElement__abundance_sea": [0.02, 67.3], "includesElement__atomic_weight_uncertainty": [0.001], "includesElement__c6_gb": [643.0, 187.0], "includesElement__electronegativity_allen": [9.793, 15.88], "includesElement__en_allen": [9.793, 15.88], "includesElement__metallic_radius": [142.0], "includesElement__metallic_radius_c12": [158.0, 117.0], "includesElement__thermal_conductivity": [81.8, 0.005], "includesElement__vdw_radius_batsanov": [220.0, 190.0], "includesElement__c6": [779.0, 162.0], "includesElement__vdw_radius_dreiding": [459.0, 395.0], "includesElement__vdw_radius_bondi": [193.0, 183.0], "includesElement__covalent_radius_bragg": [119.0], "includesElement__gas_basicity": [531.2], "includesElement__proton_affinity": [554.4], "includesElement__vdw_radius_rt": [187.0], "formula": ["Br2In2"], "spacegroup": ["63"], "thermalConductivity": [0.82337], "icsd": ["23126"], "band_gap": [1.2571], "density": [4.971176], "density_atomic": [32.52183], "deprecated": [false], "efermi": [2.650513], "energy_above_hull": [0.0], "energy_per_atom": [-3.132871], "formation_energy_per_atom": [-0.9767704], "homogeneous_poisson": [0.278], "is_gap_direct": [false], "is_magnetic": [false], "is_metal": [false], "is_stable": [true], "nelements": [2], "nsites": [4], "num_magnetic_sites": [0], "num_unique_magnetic_sites": [0], "theoretical": [false], "total_magnetization": [0.0], "total_magnetization_normalized_formula_units": [0.0], "total_magnetization_normalized_vol": [0.0], "uncorrected_energy_per_atom": [-18.68393], "universal_anisotropy": [1.171], "volume": [130.0873], "cbm": [3.7373], "e_electronic": [6.842529], "e_ionic": [41.5977], "e_total": [48.44023], "equilibrium_reaction_energy_per_atom": [-0.04400902], "n": [2.615823], "vbm": [2.4802]}