{"includesElement": ["", "Hg", "Er"], "includesElement___series_id": [8, 9], "includesElement__abundance_crust": [0.085, 3.5], "includesElement__atomic_number": [80, 68], "includesElement__atomic_radius": [150.0, 175.0], "includesElement__atomic_radius_rahm": [229.0, 272.0], "includesElement__atomic_volume": [14.8, 18.4], "includesElement__atomic_weight": [200.592, 167.259], "includesElement__covalent_radius_cordero": [132.0, 189.0], "includesElement__covalent_radius_pyykko": [133.0, 165.0], "includesElement__covalent_radius_pyykko_double": [142.0, 133.0], "includesElement__density": [13.5336, 9.07], "includesElement__dipole_polarizability": [33.91, 150.0], "includesElement__dipole_polarizability_unc": [0.34, 10.0], "includesElement__electronegativity_allred-rochow": [0.0002459155, 0.0001046832], "includesElement__electronegativity_cottrell-sutton": [0.1808501, 0.1314257], "includesElement__electronegativity_ghosh": [0.169, 0.212261], "includesElement__electronegativity_gordy": [0.03270677, 0.01727273], "includesElement__electronegativity_mulliken": [5.218752, 3.05385], "includesElement__electronegativity_nagle": [0.7073231, 0.4536061], "includesElement__electronegativity_pauling": [1.9, 1.24], "includesElement__electronegativity_sanderson": [1.164789, 0.5576573], "includesElement__en_ghosh": [0.169, 0.212261], "includesElement__en_pauling": [1.9, 1.24], "includesElement__evaporation_heat": [58.5, 317.0], "includesElement__fusion_heat": [2.295], "includesElement__glawe_number": [76, 22], "includesElement__group_id": [12], "includesElement__heat_of_formation": [61.38, 316.4], "includesElement__is_radioactive": [false], "includesElement__lattice_constant": [2.99, 3.56], "includesElement__mendeleev_number": [79, 35], "includesElement__molar_heat_capacity": [27.983, 28.12], "includesElement__period": [6], "includesElement__pettifor_number": [74, 23], "includesElement__specific_heat_capacity": [0.14, 0.168], "includesElement__vdw_radius": [223.0, 229.0], "includesElement__vdw_radius_alvarez": [245.0, 283.0], "includesElement__vdw_radius_mm3": [253.0, 267.0], "includesElement__vdw_radius_uff": [270.5, 339.1], "includesElement__abundance_sea": [3e-05, 8.7e-07], "includesElement__atomic_weight_uncertainty": [0.003], "includesElement__c6_gb": [268.0, 2150.0], "includesElement__electronegativity_allen": [10.44], "includesElement__en_allen": [10.44], "includesElement__metallic_radius": [139.0], "includesElement__metallic_radius_c12": [151.0], "includesElement__thermal_conductivity": [8.3], "includesElement__vdw_radius_batsanov": [205.0], "includesElement__discovery_year": [1843], "formula": ["Er1Hg2"], "spacegroup": ["191"], "thermalConductivity": [1.9066], "icsd": ["103246"], "band_gap": [0.0], "density": [13.46848], "density_atomic": [23.36108], "deprecated": [false], "efermi": [3.538775], "energy_above_hull": [0.00606213], "energy_per_atom": [-44.65205], "formation_energy_per_atom": [-0.4317029], "homogeneous_poisson": [0.317], "is_gap_direct": [false], "is_magnetic": [false], "is_metal": [true], "is_stable": [false], "nelements": [2], "nsites": [3], "num_magnetic_sites": [0], "num_unique_magnetic_sites": [0], "theoretical": [false], "total_magnetization": [0.0232533], "total_magnetization_normalized_formula_units": [0.0232533], "total_magnetization_normalized_vol": [0.0003317954], "uncorrected_energy_per_atom": [-44.65205], "universal_anisotropy": [0.209], "volume": [70.08325]}