{"includesElement": ["", "N", "Pt", "Mo"], "includesElement___series_id": [1, 8], "includesElement__abundance_crust": [19.0, 0.005, 1.2], "includesElement__atomic_number": [7, 78, 42], "includesElement__atomic_radius": [65.0, 135.0, 145.0], "includesElement__atomic_radius_rahm": [179.0, 230.0, 244.0], "includesElement__atomic_volume": [17.3, 9.1, 9.4], "includesElement__atomic_weight": [14.007, 195.084, 95.95], "includesElement__covalent_radius_cordero": [71.0, 136.0, 154.0], "includesElement__covalent_radius_pyykko": [71.0, 123.0, 138.0], "includesElement__covalent_radius_pyykko_double": [60.0, 112.0, 121.0], "includesElement__covalent_radius_pyykko_triple": [54.0, 110.0, 113.0], "includesElement__density": [0.001145, 21.5, 10.2], "includesElement__dipole_polarizability": [7.4, 48.0, 87.0], "includesElement__dipole_polarizability_unc": [0.2, 4.0, 6.0], "includesElement__discovery_year": [1772, 1735, 1778], "includesElement__electron_affinity": [-1.4, 2.128, 0.748], "includesElement__electronegativity_allred-rochow": [0.000773656, 0.0002346487, 0.0001549044], "includesElement__electronegativity_cottrell-sutton": [0.2343706, 0.1698876, 0.1462081], "includesElement__electronegativity_ghosh": [0.26493, 0.25691, 0.1312672], "includesElement__electronegativity_gordy": [0.05492958, 0.02886179, 0.02137681], "includesElement__electronegativity_mulliken": [6.567065, 5.543415, 3.920215], "includesElement__electronegativity_nagle": [0.8774979, 0.5928156, 0.4100883], "includesElement__electronegativity_pauling": [3.04, 2.2, 2.16], "includesElement__electronegativity_sanderson": [0.577482, 1.45101, 0.685295], "includesElement__en_ghosh": [0.26493, 0.25691, 0.1312672], "includesElement__en_pauling": [3.04, 2.2, 2.16], "includesElement__glawe_number": [88, 64, 56], "includesElement__group_id": [15, 10, 6], "includesElement__heat_of_formation": [472.44, 565.7, 658.98], "includesElement__is_radioactive": [false], "includesElement__lattice_constant": [4.039, 3.92, 3.15], "includesElement__mendeleev_number": [93, 69, 52], "includesElement__molar_heat_capacity": [29.124, 25.86, 24.06], "includesElement__period": [2, 6, 5], "includesElement__pettifor_number": [100, 68, 55], "includesElement__specific_heat_capacity": [1.04, 0.133, 0.251], "includesElement__vdw_radius": [155.0, 213.0, 217.0], "includesElement__vdw_radius_alvarez": [166.0, 229.0, 245.0], "includesElement__vdw_radius_mm3": [193.0, 239.0], "includesElement__vdw_radius_uff": [366.0, 275.4, 305.2], "includesElement__abundance_sea": [0.5, 0.01], "includesElement__c6_gb": [25.7, 470.0, 1030.0], "includesElement__covalent_radius_bragg": [65.0], "includesElement__electronegativity_allen": [18.13, 10.16, 8.71], "includesElement__en_allen": [18.13, 10.16, 8.71], "includesElement__metallic_radius_c12": [53.0, 139.0], "includesElement__thermal_conductivity": [0.026, 71.6], "includesElement__vdw_radius_batsanov": [160.0, 205.0, 210.0], "includesElement__c6": [24.2], "includesElement__vdw_radius_dreiding": [366.21], "includesElement__gas_basicity": [318.7], "includesElement__proton_affinity": [342.2], "includesElement__vdw_radius_bondi": [155.0], "includesElement__vdw_radius_rt": [164.0], "includesElement__evaporation_heat": [470.0, 590.0], "includesElement__fusion_heat": [21.76, 28.0], "includesElement__atomic_weight_uncertainty": [0.009, 0.01], "includesElement__metallic_radius": [130.0], "formula": ["Mo12N4Pt8"], "spacegroup": ["213"], "thermalConductivity": [4.86061], "icsd": ["150314"], "band_gap": [0.0], "density": [14.24803], "density_atomic": [13.44144], "deprecated": [false], "efermi": [8.716181], "energy_above_hull": [0.0], "energy_per_atom": [-9.250437], "formation_energy_per_atom": [-0.4141876], "is_gap_direct": [false], "is_magnetic": [false], "is_metal": [true], "is_stable": [true], "nelements": [3], "nsites": [24], "num_magnetic_sites": [0], "num_unique_magnetic_sites": [0], "theoretical": [false], "total_magnetization": [1e-07], "total_magnetization_normalized_formula_units": [2.5e-08], "total_magnetization_normalized_vol": [3.099866e-10], "uncorrected_energy_per_atom": [-32.14387], "volume": [322.5946], "equilibrium_reaction_energy_per_atom": [-0.01965583]}