{"includesElement": ["", "Cl", "Rb", "Te"], "includesElement___series_id": [6, 3, 5], "includesElement__abundance_crust": [145.0, 90.0, 0.001], "includesElement__atomic_number": [17, 37, 52], "includesElement__atomic_radius": [100.0, 235.0, 140.0], "includesElement__atomic_radius_rahm": [206.0, 240.0, 242.0], "includesElement__atomic_volume": [18.7, 55.9, 20.5], "includesElement__atomic_weight": [35.45, 85.4678, 127.6], "includesElement__covalent_radius_cordero": [102.0, 220.0, 138.0], "includesElement__covalent_radius_pyykko": [99.0, 210.0, 136.0], "includesElement__covalent_radius_pyykko_double": [95.0, 202.0, 128.0], "includesElement__covalent_radius_pyykko_triple": [93.0, 121.0], "includesElement__density": [0.002898, 1.53, 6.232], "includesElement__dipole_polarizability": [14.6, 319.8, 38.0], "includesElement__dipole_polarizability_unc": [0.1, 0.3, 4.0], "includesElement__discovery_year": [1774, 1861, 1782], "includesElement__electron_affinity": [3.612725, 0.48592, 1.970876], "includesElement__electronegativity_allred-rochow": [0.0006223855, 4.988662e-05, 0.0003757569], "includesElement__electronegativity_cottrell-sutton": [0.248226, 0.1023533, 0.2260596], "includesElement__electronegativity_ghosh": [0.263803, 0.104686, 0.2056992], "includesElement__electronegativity_gordy": [0.06161616, 0.01047619, 0.05110294], "includesElement__electronegativity_mulliken": [8.290178, 2.331524, 5.490268], "includesElement__electronegativity_nagle": [0.7826755, 0.1462314, 0.5404919], "includesElement__electronegativity_pauling": [3.16, 0.82, 2.1], "includesElement__electronegativity_sanderson": [0.8123773, 0.1764136, 0.8622506], "includesElement__en_ghosh": [0.263803, 0.104686, 0.2056992], "includesElement__en_pauling": [3.16, 0.82, 2.1], "includesElement__evaporation_heat": [20.41, 75.8, 49.8], "includesElement__fusion_heat": [6.41, 2.2, 17.91], "includesElement__glawe_number": [101, 9, 94], "includesElement__group_id": [17, 1, 16], "includesElement__heat_of_formation": [121.302, 80.9, 196.6], "includesElement__is_radioactive": [false], "includesElement__lattice_constant": [6.24, 5.59, 4.45], "includesElement__mendeleev_number": [107, 4, 102], "includesElement__molar_heat_capacity": [33.949, 31.06, 25.73], "includesElement__period": [3, 5], "includesElement__pettifor_number": [99, 9, 92], "includesElement__specific_heat_capacity": [0.479, 0.363, 0.202], "includesElement__vdw_radius": [175.0, 303.0, 206.0], "includesElement__vdw_radius_alvarez": [182.0, 321.0, 199.0], "includesElement__vdw_radius_mm3": [207.0, 325.0, 244.0], "includesElement__vdw_radius_uff": [394.7, 411.4, 447.0], "includesElement__abundance_sea": [19400.0, 0.12], "includesElement__c6_gb": [97.1, 4660.0, 471.0], "includesElement__covalent_radius_bragg": [105.0, 225.0, 133.0], "includesElement__electronegativity_allen": [16.97, 4.177, 12.76], "includesElement__en_allen": [16.97, 4.177, 12.76], "includesElement__metallic_radius_c12": [91.0, 248.0, 160.0], "includesElement__thermal_conductivity": [0.009, 58.2, 14.3], "includesElement__vdw_radius_batsanov": [180.0, 290.0, 210.0], "includesElement__c6": [94.6, 4769.0, 445.0], "includesElement__vdw_radius_dreiding": [395.03, 423.0], "includesElement__gas_basicity": [490.1], "includesElement__proton_affinity": [513.6], "includesElement__vdw_radius_bondi": [175.0, 206.0], "includesElement__vdw_radius_rt": [176.0], "includesElement__atomic_weight_uncertainty": [0.0003, 0.03], "includesElement__metallic_radius": [216.0, 137.0], "includesElement__vdw_radius_truhlar": [303.0], "formula": ["Cl6Rb2Te1"], "spacegroup": ["225"], "thermalConductivity": [1.0914], "icsd": ["26703"], "band_gap": [2.6398], "density": [3.120828], "density_atomic": [30.22548], "deprecated": [false], "efermi": [0.2224443], "energy_above_hull": [0.0], "energy_per_atom": [-3.481089], "formation_energy_per_atom": [-1.681579], "homogeneous_poisson": [0.27], "is_gap_direct": [false], "is_magnetic": [false], "is_metal": [false], "is_stable": [true], "nelements": [3], "nsites": [9], "num_magnetic_sites": [0], "num_unique_magnetic_sites": [0], "theoretical": [false], "total_magnetization": [0.0], "total_magnetization_normalized_formula_units": [0.0], "total_magnetization_normalized_vol": [0.0], "uncorrected_energy_per_atom": [-11.4214], "universal_anisotropy": [0.086], "volume": [272.0293], "cbm": [2.7033], "e_electronic": [3.115404], "e_ionic": [7.820506], "e_total": [10.93591], "equilibrium_reaction_energy_per_atom": [-0.07275221], "n": [1.765051], "vbm": [0.0635]}