{"includesElement": ["", "Yb", "In"], "includesElement___series_id": [9, 7], "includesElement__abundance_crust": [3.2, 0.25], "includesElement__atomic_number": [70, 49], "includesElement__atomic_radius": [175.0, 155.0], "includesElement__atomic_radius_rahm": [277.0, 246.0], "includesElement__atomic_volume": [24.8, 15.7], "includesElement__atomic_weight": [173.045, 114.818], "includesElement__covalent_radius_cordero": [187.0, 142.0], "includesElement__covalent_radius_pyykko": [170.0, 142.0], "includesElement__covalent_radius_pyykko_double": [129.0, 136.0], "includesElement__density": [6.9, 7.31], "includesElement__dipole_polarizability": [139.0, 65.0], "includesElement__dipole_polarizability_unc": [6.0, 4.0], "includesElement__discovery_year": [1878, 1863], "includesElement__electron_affinity": [-0.02, 0.3], "includesElement__electronegativity_allred-rochow": [9.861592e-05, 0.0002479667], "includesElement__electronegativity_cottrell-sutton": [0.1294786, 0.1876467], "includesElement__electronegativity_ghosh": [0.22119, 0.16423], "includesElement__electronegativity_gordy": [0.01676471, 0.03521127], "includesElement__electronegativity_mulliken": [3.11708, 3.043178], "includesElement__electronegativity_nagle": [0.4864465, 0.3587038], "includesElement__electronegativity_sanderson": [0.5176678, 0.7172747], "includesElement__en_ghosh": [0.22119, 0.16423], "includesElement__evaporation_heat": [159.0, 225.1], "includesElement__fusion_heat": [3.35, 3.24], "includesElement__glawe_number": [18, 80], "includesElement__heat_of_formation": [155.6, 243.0], "includesElement__is_radioactive": [false], "includesElement__lattice_constant": [5.49, 4.59], "includesElement__mendeleev_number": [39, 84], "includesElement__molar_heat_capacity": [26.74], "includesElement__period": [6, 5], "includesElement__pettifor_number": [17, 79], "includesElement__specific_heat_capacity": [0.155, 0.233], "includesElement__vdw_radius": [226.0, 193.0], "includesElement__vdw_radius_alvarez": [280.0, 243.0], "includesElement__vdw_radius_mm3": [279.0, 264.0], "includesElement__vdw_radius_uff": [335.5, 446.3], "includesElement__abundance_sea": [8.2e-07, 0.02], "includesElement__atomic_weight_uncertainty": [0.01, 0.001], "includesElement__c6_gb": [1910.0, 643.0], "includesElement__covalent_radius_pyykko_triple": [146.0], "includesElement__electronegativity_pauling": [1.78], "includesElement__en_pauling": [1.78], "includesElement__group_id": [13], "includesElement__electronegativity_allen": [9.793], "includesElement__en_allen": [9.793], "includesElement__metallic_radius": [142.0], "includesElement__metallic_radius_c12": [158.0], "includesElement__thermal_conductivity": [81.8], "includesElement__vdw_radius_batsanov": [220.0], "includesElement__c6": [779.0], "includesElement__vdw_radius_dreiding": [459.0], "includesElement__vdw_radius_bondi": [193.0], "formula": ["In1Yb1"], "spacegroup": ["221"], "thermalConductivity": [1.54544], "icsd": ["59570"], "band_gap": [0.0], "density": [8.503933], "density_atomic": [28.10461], "deprecated": [false], "efermi": [4.592672], "homogeneous_poisson": [0.222], "is_gap_direct": [false], "is_magnetic": [false], "is_metal": [true], "is_stable": [false], "nelements": [2], "nsites": [2], "num_magnetic_sites": [0], "num_unique_magnetic_sites": [0], "theoretical": [false], "total_magnetization": [0.0014417], "total_magnetization_normalized_formula_units": [0.0014417], "total_magnetization_normalized_vol": [2.564882e-05], "universal_anisotropy": [1.836], "volume": [56.20922]}