{"includesElement": ["", "Sb", "Rh"], "includesElement___series_id": [5, 8], "includesElement__abundance_crust": [0.2, 0.001], "includesElement__atomic_number": [51, 45], "includesElement__atomic_radius": [145.0, 135.0], "includesElement__atomic_radius_rahm": [246.0, 233.0], "includesElement__atomic_volume": [18.4, 8.3], "includesElement__atomic_weight": [121.76, 102.9055], "includesElement__covalent_radius_cordero": [139.0, 142.0], "includesElement__covalent_radius_pyykko": [140.0, 125.0], "includesElement__covalent_radius_pyykko_double": [133.0, 110.0], "includesElement__covalent_radius_pyykko_triple": [127.0, 106.0], "includesElement__density": [6.68, 12.4], "includesElement__dipole_polarizability": [43.0, 66.0], "includesElement__dipole_polarizability_unc": [2.0, 10.0], "includesElement__electron_affinity": [1.046, 1.137], "includesElement__electronegativity_allred-rochow": [0.0003214286, 0.0002176], "includesElement__electronegativity_cottrell-sutton": [0.212132, 0.1649242], "includesElement__electronegativity_ghosh": [0.1918774, 0.1408379], "includesElement__electronegativity_gordy": [0.045, 0.0272], "includesElement__electronegativity_mulliken": [4.827195, 4.29795], "includesElement__electronegativity_nagle": [0.4880907, 0.5147142], "includesElement__electronegativity_pauling": [2.05, 2.28], "includesElement__electronegativity_sanderson": [0.7762722, 0.9761915], "includesElement__en_ghosh": [0.1918774, 0.1408379], "includesElement__en_pauling": [2.05, 2.28], "includesElement__evaporation_heat": [195.2, 494.0], "includesElement__fusion_heat": [20.08, 21.8], "includesElement__glawe_number": [91, 63], "includesElement__group_id": [15, 9], "includesElement__heat_of_formation": [264.4, 556.0], "includesElement__is_radioactive": [false], "includesElement__lattice_constant": [4.51, 3.8], "includesElement__mendeleev_number": [96, 64], "includesElement__molar_heat_capacity": [25.23, 24.98], "includesElement__period": [5], "includesElement__pettifor_number": [88, 66], "includesElement__specific_heat_capacity": [0.207, 0.243], "includesElement__vdw_radius": [206.0, 210.0], "includesElement__vdw_radius_alvarez": [247.0, 244.0], "includesElement__vdw_radius_mm3": [252.0, 234.0], "includesElement__vdw_radius_uff": [442.0, 292.9], "includesElement__abundance_sea": [0.00024], "includesElement__atomic_weight_uncertainty": [0.001, 2e-05], "includesElement__c6_gb": [504.0, 708.0], "includesElement__covalent_radius_bragg": [140.0], "includesElement__electronegativity_allen": [11.74, 9.259], "includesElement__en_allen": [11.74, 9.259], "includesElement__metallic_radius": [139.0, 125.0], "includesElement__metallic_radius_c12": [166.0, 134.0], "includesElement__thermal_conductivity": [24.43, 150.0], "includesElement__vdw_radius_batsanov": [220.0, 200.0], "includesElement__c6": [492.0], "includesElement__vdw_radius_dreiding": [435.0], "includesElement__vdw_radius_truhlar": [206.0], "includesElement__discovery_year": [1803], "includesElement__is_monoisotopic": [true], "includesElement__gas_basicity": [745.4], "includesElement__proton_affinity": [768.0], "formula": ["Rh4Sb12"], "spacegroup": ["204"], "thermalConductivity": [2.275, 2.27515, 2.2737], "icsd": ["34049", "44716", "650248"], "band_gap": [0.0], "density": [7.706655], "density_atomic": [25.21977], "deprecated": [false], "efermi": [7.235381], "energy_above_hull": [0.0], "energy_per_atom": [-25.75819], "formation_energy_per_atom": [-0.4443963], "is_gap_direct": [false], "is_magnetic": [false], "is_metal": [true], "is_stable": [true], "nelements": [2], "nsites": [16], "num_magnetic_sites": [0], "num_unique_magnetic_sites": [0], "theoretical": [false], "total_magnetization": [0.0], "total_magnetization_normalized_formula_units": [0.0], "total_magnetization_normalized_vol": [0.0], "uncorrected_energy_per_atom": [-25.75819], "volume": [403.5164], "equilibrium_reaction_energy_per_atom": [-0.06291297]}