{"includesElement": ["", "Ag", "Br"], "includesElement___series_id": [8, 6], "includesElement__abundance_crust": [0.075, 2.4], "includesElement__atomic_number": [47, 35], "includesElement__atomic_radius": [160.0, 115.0], "includesElement__atomic_radius_rahm": [225.0, 219.0], "includesElement__atomic_volume": [10.3, 23.5], "includesElement__atomic_weight": [107.8682, 79.904], "includesElement__covalent_radius_cordero": [145.0, 120.0], "includesElement__covalent_radius_pyykko": [128.0, 114.0], "includesElement__covalent_radius_pyykko_double": [139.0, 109.0], "includesElement__covalent_radius_pyykko_triple": [137.0, 110.0], "includesElement__density": [10.5, 3.1028], "includesElement__dipole_polarizability": [55.0, 21.0], "includesElement__dipole_polarizability_unc": [8.0, 1.0], "includesElement__electron_affinity": [1.302, 3.363588], "includesElement__electronegativity_allred-rochow": [0.0002258301, 0.0005847953], "includesElement__electronegativity_cottrell-sutton": [0.1700184, 0.2581989], "includesElement__electronegativity_ghosh": [0.1472165, 0.2412578], "includesElement__electronegativity_gordy": [0.02890625, 0.06666667], "includesElement__electronegativity_mulliken": [4.439117, 7.588699], "includesElement__electronegativity_nagle": [0.5848035, 0.6933613], "includesElement__electronegativity_pauling": [1.93, 2.96], "includesElement__electronegativity_sanderson": [0.9437955, 1.049026], "includesElement__en_ghosh": [0.1472165, 0.2412578], "includesElement__en_pauling": [1.93, 2.96], "includesElement__evaporation_heat": [254.1, 29.56], "includesElement__fusion_heat": [11.95, 10.57], "includesElement__glawe_number": [67, 100], "includesElement__group_id": [11, 17], "includesElement__heat_of_formation": [284.9, 111.85], "includesElement__is_radioactive": [false], "includesElement__lattice_constant": [4.09, 6.67], "includesElement__mendeleev_number": [72, 108], "includesElement__molar_heat_capacity": [25.35, 75.69], "includesElement__period": [5, 4], "includesElement__pettifor_number": [71, 98], "includesElement__specific_heat_capacity": [0.235, 0.474], "includesElement__vdw_radius": [211.0, 185.0], "includesElement__vdw_radius_alvarez": [253.0, 186.0], "includesElement__vdw_radius_mm3": [243.0, 222.0], "includesElement__vdw_radius_uff": [314.8, 418.9], "includesElement__abundance_sea": [4e-05, 67.3], "includesElement__atomic_weight_uncertainty": [0.0002], "includesElement__c6_gb": [341.0, 187.0], "includesElement__covalent_radius_bragg": [177.0, 119.0], "includesElement__electronegativity_allen": [11.05, 15.88], "includesElement__en_allen": [11.05, 15.88], "includesElement__metallic_radius": [134.0], "includesElement__metallic_radius_c12": [144.0, 117.0], "includesElement__thermal_conductivity": [429.0, 0.005], "includesElement__vdw_radius_batsanov": [210.0, 190.0], "includesElement__discovery_year": [1826], "includesElement__c6": [162.0], "includesElement__vdw_radius_dreiding": [395.0], "includesElement__gas_basicity": [531.2], "includesElement__proton_affinity": [554.4], "includesElement__vdw_radius_bondi": [183.0], "includesElement__vdw_radius_rt": [187.0], "formula": ["Ag2Br2"], "spacegroup": ["11"], "thermalConductivity": [0.46751, 0.475994], "icsd": ["56549", "56550"], "band_gap": [0.699], "density": [6.245164], "density_atomic": [24.96356], "deprecated": [false], "efermi": [1.370719], "energy_above_hull": [0.04153902], "energy_per_atom": [-17.71648], "formation_energy_per_atom": [-0.4628605], "is_gap_direct": [false], "is_magnetic": [false], "is_metal": [false], "is_stable": [false], "nelements": [2], "nsites": [4], "num_magnetic_sites": [0], "num_unique_magnetic_sites": [0], "theoretical": [false], "total_magnetization": [0.0], "total_magnetization_normalized_formula_units": [0.0], "total_magnetization_normalized_vol": [0.0], "uncorrected_energy_per_atom": [-2.560519], "volume": [99.85425], "cbm": [1.9918], "vbm": [1.2928]}