{"includesElement": ["", "Au", "Rb", "C"], "includesElement___series_id": [8, 3, 1], "includesElement__abundance_crust": [0.004, 90.0, 200.0], "includesElement__atomic_number": [79, 37, 6], "includesElement__atomic_radius": [135.0, 235.0, 70.0], "includesElement__atomic_radius_rahm": [226.0, 240.0, 190.0], "includesElement__atomic_volume": [10.2, 55.9, 5.3], "includesElement__atomic_weight": [196.9666, 85.4678, 12.011], "includesElement__covalent_radius_cordero": [136.0, 220.0, 73.0], "includesElement__covalent_radius_pyykko": [124.0, 210.0, 75.0], "includesElement__covalent_radius_pyykko_double": [121.0, 202.0, 67.0], "includesElement__covalent_radius_pyykko_triple": [123.0, 60.0], "includesElement__density": [19.3, 1.53, 2.2], "includesElement__dipole_polarizability": [36.0, 319.8, 11.3], "includesElement__dipole_polarizability_unc": [3.0, 0.3, 0.2], "includesElement__electron_affinity": [2.30863, 0.48592, 1.262119], "includesElement__electronegativity_allred-rochow": [0.0002406348, 4.988662e-05, 0.0005777778], "includesElement__electronegativity_cottrell-sutton": [0.1727388, 0.1023533, 0.2081666], "includesElement__electronegativity_ghosh": [0.26137, 0.104686, 0.224776], "includesElement__electronegativity_gordy": [0.02983871, 0.01047619, 0.04333333], "includesElement__electronegativity_mulliken": [5.767091, 2.331524, 6.261208], "includesElement__electronegativity_nagle": [0.67354, 0.1462314, 0.7073926], "includesElement__electronegativity_pauling": [2.4, 0.82, 2.55], "includesElement__electronegativity_sanderson": [1.426701, 0.1764136, 0.427525], "includesElement__en_ghosh": [0.26137, 0.104686, 0.224776], "includesElement__en_pauling": [2.4, 0.82, 2.55], "includesElement__evaporation_heat": [340.0, 75.8], "includesElement__fusion_heat": [12.68, 2.2], "includesElement__glawe_number": [66, 9, 87], "includesElement__group_id": [11, 1, 14], "includesElement__heat_of_formation": [368.2, 80.9, 716.87], "includesElement__is_radioactive": [false], "includesElement__lattice_constant": [4.08, 5.59, 3.57], "includesElement__mendeleev_number": [73, 4, 87], "includesElement__molar_heat_capacity": [25.418, 31.06, 8.517], "includesElement__period": [6, 5, 2], "includesElement__pettifor_number": [70, 9, 95], "includesElement__specific_heat_capacity": [0.129, 0.363, 0.709], "includesElement__vdw_radius": [214.0, 303.0, 170.0], "includesElement__vdw_radius_alvarez": [232.0, 321.0, 177.0], "includesElement__vdw_radius_mm3": [243.0, 325.0, 204.0], "includesElement__vdw_radius_uff": [329.3, 411.4, 385.1], "includesElement__abundance_sea": [4e-06, 0.12, 28.0], "includesElement__atomic_weight_uncertainty": [5e-06, 0.0003], "includesElement__c6_gb": [427.0, 4660.0, 47.9], "includesElement__electronegativity_allen": [11.33, 4.177, 15.05], "includesElement__en_allen": [11.33, 4.177, 15.05], "includesElement__metallic_radius": [134.0, 216.0], "includesElement__metallic_radius_c12": [144.0, 248.0, 86.0], "includesElement__thermal_conductivity": [318.0, 58.2, 1.59], "includesElement__vdw_radius_batsanov": [210.0, 290.0, 170.0], "includesElement__is_monoisotopic": [true], "includesElement__discovery_year": [1861], "includesElement__covalent_radius_bragg": [225.0, 77.0], "includesElement__c6": [4769.0, 46.6], "includesElement__vdw_radius_truhlar": [303.0], "includesElement__vdw_radius_dreiding": [389.83], "includesElement__vdw_radius_bondi": [170.0], "includesElement__vdw_radius_rt": [177.0], "formula": ["Au1C2Rb1"], "spacegroup": ["123"], "thermalConductivity": [4.06764], "icsd": ["411252"], "band_gap": [2.1956], "density": [4.626262], "density_atomic": [27.49962], "deprecated": [false], "efermi": [-0.633555], "energy_above_hull": [0.326202], "energy_per_atom": [-5.498605], "formation_energy_per_atom": [0.1793321], "homogeneous_poisson": [0.285], "is_gap_direct": [false], "is_magnetic": [false], "is_metal": [false], "is_stable": [false], "nelements": [3], "nsites": [4], "num_magnetic_sites": [0], "num_unique_magnetic_sites": [0], "theoretical": [false], "total_magnetization": [0.0], "total_magnetization_normalized_formula_units": [0.0], "total_magnetization_normalized_vol": [0.0], "uncorrected_energy_per_atom": [-5.498605], "universal_anisotropy": [49.723], "volume": [109.9985], "cbm": [1.4828], "vbm": [-0.7128]}