{"includesElement": ["", "Ni", "Be"], "includesElement___series_id": [8, 4], "includesElement__abundance_crust": [84.0, 2.8], "includesElement__atomic_number": [28, 4], "includesElement__atomic_radius": [135.0, 105.0], "includesElement__atomic_radius_rahm": [229.0, 219.0], "includesElement__atomic_volume": [6.6, 5.0], "includesElement__atomic_weight": [58.6934, 9.012183], "includesElement__covalent_radius_cordero": [124.0, 96.0], "includesElement__covalent_radius_pyykko": [110.0, 102.0], "includesElement__covalent_radius_pyykko_double": [101.0, 90.0], "includesElement__covalent_radius_pyykko_triple": [101.0, 85.0], "includesElement__density": [8.9, 1.85], "includesElement__dipole_polarizability": [49.0, 37.74], "includesElement__dipole_polarizability_unc": [3.0, 0.03], "includesElement__discovery_year": [1751, 1798], "includesElement__electron_affinity": [1.156, -2.4], "includesElement__electronegativity_allred-rochow": [0.0003347107, 0.0001874279], "includesElement__electronegativity_cottrell-sutton": [0.1918806, 0.1382666], "includesElement__electronegativity_ghosh": [0.1472068, 0.144986], "includesElement__electronegativity_gordy": [0.03681818, 0.01911765], "includesElement__electronegativity_mulliken": [4.397939, 3.461349], "includesElement__electronegativity_nagle": [0.588755, 0.3756148], "includesElement__electronegativity_pauling": [1.91, 1.57], "includesElement__electronegativity_sanderson": [0.937704, 0.1268473], "includesElement__en_ghosh": [0.1472068, 0.144986], "includesElement__en_pauling": [1.91, 1.57], "includesElement__evaporation_heat": [378.6, 309.0], "includesElement__fusion_heat": [17.61, 12.21], "includesElement__glawe_number": [69, 77], "includesElement__group_id": [10, 2], "includesElement__heat_of_formation": [430.1, 324.0], "includesElement__is_radioactive": [false], "includesElement__lattice_constant": [3.52, 2.29], "includesElement__mendeleev_number": [67, 75], "includesElement__molar_heat_capacity": [26.07, 16.443], "includesElement__period": [4, 2], "includesElement__pettifor_number": [67, 77], "includesElement__specific_heat_capacity": [0.444, 1.825], "includesElement__vdw_radius": [197.0, 153.0], "includesElement__vdw_radius_alvarez": [240.0, 198.0], "includesElement__vdw_radius_mm3": [222.0, 223.0], "includesElement__vdw_radius_uff": [283.4, 274.5], "includesElement__abundance_sea": [0.00056, 5.6e-06], "includesElement__atomic_weight_uncertainty": [0.0004, 5e-07], "includesElement__c6_gb": [393.0, 214.0], "includesElement__covalent_radius_bragg": [135.0, 115.0], "includesElement__electronegativity_allen": [11.13, 9.323], "includesElement__en_allen": [11.13, 9.323], "includesElement__metallic_radius": [115.0, 89.0], "includesElement__metallic_radius_c12": [124.0, 112.0], "includesElement__thermal_conductivity": [90.9, 201.0], "includesElement__vdw_radius_batsanov": [200.0, 190.0], "includesElement__c6": [373.0, 227.0], "includesElement__gas_basicity": [714.1], "includesElement__proton_affinity": [737.0], "includesElement__is_monoisotopic": [true], "includesElement__vdw_radius_truhlar": [153.0], "formula": ["Be1Ni1"], "spacegroup": ["221"], "thermalConductivity": [21.5661], "icsd": ["58726"], "band_gap": [0.0], "density": [6.493584], "density_atomic": [8.656834], "deprecated": [false], "efermi": [7.203207], "energy_above_hull": [0.0], "energy_per_atom": [-5.228056], "formation_energy_per_atom": [-0.4682813], "homogeneous_poisson": [0.474], "is_gap_direct": [false], "is_magnetic": [false], "is_metal": [true], "is_stable": [true], "nelements": [2], "nsites": [2], "num_magnetic_sites": [0], "num_unique_magnetic_sites": [0], "theoretical": [false], "total_magnetization": [1.77e-05], "total_magnetization_normalized_formula_units": [1.77e-05], "total_magnetization_normalized_vol": [1.022314e-06], "uncorrected_energy_per_atom": [-8.621259], "universal_anisotropy": [-11.592], "volume": [17.31367], "equilibrium_reaction_energy_per_atom": [-0.2791575]}