{"includesElement": ["", "K", "Au", "C"], "includesElement___series_id": [3, 8, 1], "includesElement__abundance_crust": [20900.0, 0.004, 200.0], "includesElement__atomic_number": [19, 79, 6], "includesElement__atomic_radius": [220.0, 135.0, 70.0], "includesElement__atomic_radius_rahm": [234.0, 226.0, 190.0], "includesElement__atomic_volume": [45.3, 10.2, 5.3], "includesElement__atomic_weight": [39.0983, 196.9666, 12.011], "includesElement__covalent_radius_cordero": [203.0, 136.0, 73.0], "includesElement__covalent_radius_pyykko": [196.0, 124.0, 75.0], "includesElement__covalent_radius_pyykko_double": [193.0, 121.0, 67.0], "includesElement__density": [0.89, 19.3, 2.2], "includesElement__dipole_polarizability": [289.7, 36.0, 11.3], "includesElement__dipole_polarizability_unc": [0.3, 3.0, 0.2], "includesElement__discovery_year": [1807], "includesElement__electron_affinity": [0.50147, 2.30863, 1.262119], "includesElement__electronegativity_allred-rochow": [5.726781e-05, 0.0002406348, 0.0005777778], "includesElement__electronegativity_cottrell-sutton": [0.1059457, 0.1727388, 0.2081666], "includesElement__electronegativity_ghosh": [0.0981896, 0.26137, 0.224776], "includesElement__electronegativity_gordy": [0.01122449, 0.02983871, 0.04333333], "includesElement__electronegativity_mulliken": [2.421067, 5.767091, 6.261208], "includesElement__electronegativity_nagle": [0.1511299, 0.67354, 0.7073926], "includesElement__electronegativity_pauling": [0.82, 2.4, 2.55], "includesElement__electronegativity_sanderson": [0.1218383, 1.426701, 0.427525], "includesElement__en_ghosh": [0.0981896, 0.26137, 0.224776], "includesElement__en_pauling": [0.82, 2.4, 2.55], "includesElement__evaporation_heat": [2.33, 340.0], "includesElement__fusion_heat": [102.5, 12.68], "includesElement__glawe_number": [10, 66, 87], "includesElement__group_id": [1, 11, 14], "includesElement__heat_of_formation": [89.0, 368.2, 716.87], "includesElement__is_radioactive": [false], "includesElement__lattice_constant": [5.23, 4.08, 3.57], "includesElement__mendeleev_number": [3, 73, 87], "includesElement__molar_heat_capacity": [29.6, 25.418, 8.517], "includesElement__period": [4, 6, 2], "includesElement__pettifor_number": [10, 70, 95], "includesElement__specific_heat_capacity": [0.757, 0.129, 0.709], "includesElement__vdw_radius": [275.0, 214.0, 170.0], "includesElement__vdw_radius_alvarez": [273.0, 232.0, 177.0], "includesElement__vdw_radius_mm3": [309.0, 243.0, 204.0], "includesElement__vdw_radius_uff": [381.2, 329.3, 385.1], "includesElement__abundance_sea": [399.0, 4e-06, 28.0], "includesElement__atomic_weight_uncertainty": [0.0001, 5e-06], "includesElement__c6_gb": [3910.0, 427.0, 47.9], "includesElement__covalent_radius_bragg": [207.0, 77.0], "includesElement__electronegativity_allen": [4.34, 11.33, 15.05], "includesElement__en_allen": [4.34, 11.33, 15.05], "includesElement__metallic_radius": [203.0, 134.0], "includesElement__metallic_radius_c12": [235.0, 144.0, 86.0], "includesElement__thermal_conductivity": [79.0, 318.0, 1.59], "includesElement__vdw_radius_batsanov": [280.0, 210.0, 170.0], "includesElement__c6": [3923.0, 46.6], "includesElement__vdw_radius_bondi": [275.0, 170.0], "includesElement__covalent_radius_pyykko_triple": [123.0, 60.0], "includesElement__is_monoisotopic": [true], "includesElement__vdw_radius_dreiding": [389.83], "includesElement__vdw_radius_rt": [177.0], "formula": ["Au1C2K1"], "spacegroup": ["123"], "thermalConductivity": [4.92026], "icsd": ["411255"], "band_gap": [2.0249], "density": [4.368425], "density_atomic": [24.71619], "deprecated": [false], "efermi": [-0.5684579], "energy_above_hull": [0.3357716], "energy_per_atom": [-5.535448], "formation_energy_per_atom": [0.1801976], "homogeneous_poisson": [0.283], "is_gap_direct": [false], "is_magnetic": [false], "is_metal": [false], "is_stable": [false], "nelements": [3], "nsites": [4], "num_magnetic_sites": [0], "num_unique_magnetic_sites": [0], "theoretical": [false], "total_magnetization": [0.0], "total_magnetization_normalized_formula_units": [0.0], "total_magnetization_normalized_vol": [0.0], "uncorrected_energy_per_atom": [-5.535448], "universal_anisotropy": [41.606], "volume": [98.86478], "cbm": [1.3357], "vbm": [-0.6892]}