{"includesElement": ["", "F", "La"], "includesElement___series_id": [6, 9], "includesElement__abundance_crust": [585.0, 39.0], "includesElement__atomic_number": [9, 57], "includesElement__atomic_radius": [50.0, 195.0], "includesElement__atomic_radius_rahm": [163.0, 284.0], "includesElement__atomic_volume": [17.1, 22.5], "includesElement__atomic_weight": [18.9984, 138.9055], "includesElement__covalent_radius_cordero": [57.0, 207.0], "includesElement__covalent_radius_pyykko": [64.0, 180.0], "includesElement__covalent_radius_pyykko_double": [59.0, 139.0], "includesElement__covalent_radius_pyykko_triple": [53.0, 139.0], "includesElement__density": [0.001553, 6.15], "includesElement__dipole_polarizability": [3.74, 215.0], "includesElement__dipole_polarizability_unc": [0.08, 20.0], "includesElement__discovery_year": [1886, 1839], "includesElement__electron_affinity": [3.40119, 0.47], "includesElement__electronegativity_allred-rochow": [0.001269531, 9.259259e-05], "includesElement__electronegativity_cottrell-sutton": [0.2850439, 0.1290994], "includesElement__electronegativity_ghosh": [0.344443, 0.163142], "includesElement__electronegativity_gordy": [0.08125, 0.01666667], "includesElement__electronegativity_mulliken": [10.412, 3.02345], "includesElement__electronegativity_nagle": [1.232373, 0.240747], "includesElement__electronegativity_pauling": [3.98, 1.1], "includesElement__electronegativity_sanderson": [1.017681, 0.3946505], "includesElement__en_ghosh": [0.344443, 0.163142], "includesElement__en_pauling": [3.98, 1.1], "includesElement__evaporation_heat": [6.54, 402.0], "includesElement__fusion_heat": [0.51, 8.5], "includesElement__glawe_number": [102, 32], "includesElement__group_id": [17, 3], "includesElement__heat_of_formation": [79.335, 431.0], "includesElement__is_radioactive": [false], "includesElement__mendeleev_number": [106, 13], "includesElement__molar_heat_capacity": [31.304, 27.11], "includesElement__period": [2, 6], "includesElement__pettifor_number": [102, 33], "includesElement__specific_heat_capacity": [0.824, 0.195], "includesElement__vdw_radius": [147.0, 243.0], "includesElement__vdw_radius_alvarez": [146.0, 298.0], "includesElement__vdw_radius_mm3": [171.0, 278.0], "includesElement__vdw_radius_uff": [336.4, 352.2], "includesElement__abundance_sea": [1.3, 3.4e-06], "includesElement__atomic_weight_uncertainty": [6e-09, 7e-05], "includesElement__c6_gb": [10.2, 3730.0], "includesElement__covalent_radius_bragg": [67.0], "includesElement__electronegativity_allen": [24.8], "includesElement__en_allen": [24.8], "includesElement__thermal_conductivity": [0.028, 13.4], "includesElement__vdw_radius_batsanov": [150.0, 250.0], "includesElement__c6": [9.52], "includesElement__is_monoisotopic": [true], "includesElement__vdw_radius_dreiding": [347.2], "includesElement__gas_basicity": [315.1, 991.9], "includesElement__proton_affinity": [340.1, 1013.0], "includesElement__vdw_radius_bondi": [147.0], "includesElement__vdw_radius_rt": [146.0], "includesElement__lattice_constant": [3.75], "includesElement__metallic_radius": [169.0], "includesElement__metallic_radius_c12": [187.0], "formula": ["F3La1"], "spacegroup": ["139"], "thermalConductivity": [3.49061], "icsd": ["155554"], "band_gap": [4.816], "density": [6.472252], "density_atomic": [12.56521], "deprecated": [false], "efermi": [4.414122], "energy_above_hull": [0.1720472], "energy_per_atom": [-14.11694], "formation_energy_per_atom": [-4.338001], "is_gap_direct": [true], "is_magnetic": [false], "is_metal": [false], "is_stable": [false], "nelements": [2], "nsites": [4], "num_magnetic_sites": [0], "num_unique_magnetic_sites": [0], "theoretical": [true], "total_magnetization": [0.0008586], "total_magnetization_normalized_formula_units": [0.0008586], "total_magnetization_normalized_vol": [1.708289e-05], "uncorrected_energy_per_atom": [-6.641255], "volume": [50.26082], "cbm": [9.0367], "vbm": [4.2207]}