{"includesElement": ["", "Ni", "Pt"], "includesElement___series_id": [8], "includesElement__abundance_crust": [84.0, 0.005], "includesElement__atomic_number": [28, 78], "includesElement__atomic_radius": [135.0], "includesElement__atomic_radius_rahm": [229.0, 230.0], "includesElement__atomic_volume": [6.6, 9.1], "includesElement__atomic_weight": [58.6934, 195.084], "includesElement__covalent_radius_cordero": [124.0, 136.0], "includesElement__covalent_radius_pyykko": [110.0, 123.0], "includesElement__covalent_radius_pyykko_double": [101.0, 112.0], "includesElement__covalent_radius_pyykko_triple": [101.0, 110.0], "includesElement__density": [8.9, 21.5], "includesElement__dipole_polarizability": [49.0, 48.0], "includesElement__dipole_polarizability_unc": [3.0, 4.0], "includesElement__discovery_year": [1751, 1735], "includesElement__electron_affinity": [1.156, 2.128], "includesElement__electronegativity_allred-rochow": [0.0003347107, 0.0002346487], "includesElement__electronegativity_cottrell-sutton": [0.1918806, 0.1698876], "includesElement__electronegativity_ghosh": [0.1472068, 0.25691], "includesElement__electronegativity_gordy": [0.03681818, 0.02886179], "includesElement__electronegativity_mulliken": [4.397939, 5.543415], "includesElement__electronegativity_nagle": [0.588755, 0.5928156], "includesElement__electronegativity_pauling": [1.91, 2.2], "includesElement__electronegativity_sanderson": [0.937704, 1.45101], "includesElement__en_ghosh": [0.1472068, 0.25691], "includesElement__en_pauling": [1.91, 2.2], "includesElement__evaporation_heat": [378.6, 470.0], "includesElement__fusion_heat": [17.61, 21.76], "includesElement__glawe_number": [69, 64], "includesElement__group_id": [10], "includesElement__heat_of_formation": [430.1, 565.7], "includesElement__is_radioactive": [false], "includesElement__lattice_constant": [3.52, 3.92], "includesElement__mendeleev_number": [67, 69], "includesElement__molar_heat_capacity": [26.07, 25.86], "includesElement__period": [4, 6], "includesElement__pettifor_number": [67, 68], "includesElement__specific_heat_capacity": [0.444, 0.133], "includesElement__vdw_radius": [197.0, 213.0], "includesElement__vdw_radius_alvarez": [240.0, 229.0], "includesElement__vdw_radius_mm3": [222.0, 239.0], "includesElement__vdw_radius_uff": [283.4, 275.4], "includesElement__abundance_sea": [0.00056], "includesElement__atomic_weight_uncertainty": [0.0004, 0.009], "includesElement__c6_gb": [393.0, 470.0], "includesElement__covalent_radius_bragg": [135.0], "includesElement__electronegativity_allen": [11.13, 10.16], "includesElement__en_allen": [11.13, 10.16], "includesElement__metallic_radius": [115.0, 130.0], "includesElement__metallic_radius_c12": [124.0, 139.0], "includesElement__thermal_conductivity": [90.9, 71.6], "includesElement__vdw_radius_batsanov": [200.0, 205.0], "includesElement__c6": [373.0], "includesElement__gas_basicity": [714.1], "includesElement__proton_affinity": [737.0], "formula": ["Ni1Pt1"], "spacegroup": ["123"], "thermalConductivity": [11.3909], "icsd": ["105316"], "band_gap": [0.0], "density": [16.03628], "density_atomic": [13.13919], "deprecated": [false], "efermi": [7.566429], "energy_above_hull": [0.0], "energy_per_atom": [-6.020751], "formation_energy_per_atom": [-0.09511592], "homogeneous_poisson": [0.312], "is_gap_direct": [false], "is_magnetic": [true], "is_metal": [true], "is_stable": [true], "nelements": [2], "nsites": [4], "num_magnetic_sites": [2], "num_unique_magnetic_sites": [2], "theoretical": [false], "total_magnetization": [2.585773], "total_magnetization_normalized_formula_units": [1.292887], "total_magnetization_normalized_vol": [0.04919965], "uncorrected_energy_per_atom": [-6.020751], "universal_anisotropy": [0.468], "volume": [52.55674], "equilibrium_reaction_energy_per_atom": [-0.02873026]}