{"includesElement": ["", "Sb", "N", "Th"], "includesElement___series_id": [5, 1, 10], "includesElement__abundance_crust": [0.2, 19.0, 9.6], "includesElement__atomic_number": [51, 7, 90], "includesElement__atomic_radius": [145.0, 65.0, 180.0], "includesElement__atomic_radius_rahm": [246.0, 179.0, 288.0], "includesElement__atomic_volume": [18.4, 17.3, 19.8], "includesElement__atomic_weight": [121.76, 14.007, 232.0377], "includesElement__covalent_radius_cordero": [139.0, 71.0, 206.0], "includesElement__covalent_radius_pyykko": [140.0, 71.0, 175.0], "includesElement__covalent_radius_pyykko_double": [133.0, 60.0, 143.0], "includesElement__covalent_radius_pyykko_triple": [127.0, 54.0, 136.0], "includesElement__density": [6.68, 0.001145, 11.7], "includesElement__dipole_polarizability": [43.0, 7.4, 217.0], "includesElement__dipole_polarizability_unc": [2.0, 0.2, 54.0], "includesElement__electron_affinity": [1.046, -1.4], "includesElement__electronegativity_allred-rochow": [0.0003214286, 0.000773656, 0.0001028571], "includesElement__electronegativity_cottrell-sutton": [0.212132, 0.2343706, 0.1341641], "includesElement__electronegativity_ghosh": [0.1918774, 0.26493, 0.10277], "includesElement__electronegativity_gordy": [0.045, 0.05492958, 0.018], "includesElement__electronegativity_mulliken": [4.827195, 6.567065, 3.15335], "includesElement__electronegativity_nagle": [0.4880907, 0.8774979, 0.2641598], "includesElement__electronegativity_pauling": [2.05, 3.04, 1.3], "includesElement__electronegativity_sanderson": [0.7762722, 0.577482, 0.5557019], "includesElement__en_ghosh": [0.1918774, 0.26493, 0.10277], "includesElement__en_pauling": [2.05, 3.04, 1.3], "includesElement__evaporation_heat": [195.2, 513.7], "includesElement__fusion_heat": [20.08, 16.11], "includesElement__glawe_number": [91, 88, 34], "includesElement__group_id": [15], "includesElement__heat_of_formation": [264.4, 472.44, 602.0], "includesElement__is_radioactive": [false, true], "includesElement__lattice_constant": [4.51, 4.039, 5.08], "includesElement__mendeleev_number": [96, 93, 16], "includesElement__molar_heat_capacity": [25.23, 29.124, 27.32], "includesElement__period": [5, 2, 7], "includesElement__pettifor_number": [88, 100, 47], "includesElement__specific_heat_capacity": [0.207, 1.04, 0.118], "includesElement__vdw_radius": [206.0, 155.0, 245.0], "includesElement__vdw_radius_alvarez": [247.0, 166.0, 293.0], "includesElement__vdw_radius_mm3": [252.0, 193.0, 274.0], "includesElement__vdw_radius_uff": [442.0, 366.0, 339.6], "includesElement__abundance_sea": [0.00024, 0.5, 1e-06], "includesElement__atomic_weight_uncertainty": [0.001, 0.0004], "includesElement__c6_gb": [504.0, 25.7], "includesElement__covalent_radius_bragg": [140.0, 65.0], "includesElement__electronegativity_allen": [11.74, 18.13], "includesElement__en_allen": [11.74, 18.13], "includesElement__metallic_radius": [139.0], "includesElement__metallic_radius_c12": [166.0, 53.0], "includesElement__thermal_conductivity": [24.43, 0.026], "includesElement__vdw_radius_batsanov": [220.0, 160.0, 240.0], "includesElement__c6": [492.0, 24.2], "includesElement__vdw_radius_dreiding": [435.0, 366.21], "includesElement__vdw_radius_truhlar": [206.0], "includesElement__discovery_year": [1772, 1828], "includesElement__gas_basicity": [318.7], "includesElement__proton_affinity": [342.2], "includesElement__vdw_radius_bondi": [155.0], "includesElement__vdw_radius_rt": [164.0], "formula": ["N2Sb1Th2"], "spacegroup": ["139"], "thermalConductivity": [6.6404], "icsd": ["16062"], "band_gap": [0.0], "density": [8.918326], "density_atomic": [22.85902], "deprecated": [false], "efermi": [6.584691], "energy_above_hull": [0.0], "energy_per_atom": [-39.94854], "formation_energy_per_atom": [-1.765673], "is_gap_direct": [false], "is_magnetic": [false], "is_metal": [true], "is_stable": [true], "nelements": [3], "nsites": [5], "num_magnetic_sites": [0], "num_unique_magnetic_sites": [0], "theoretical": [false], "total_magnetization": [8.6e-06], "total_magnetization_normalized_formula_units": [8.6e-06], "total_magnetization_normalized_vol": [7.524381e-08], "uncorrected_energy_per_atom": [-39.94854], "volume": [114.2951], "equilibrium_reaction_energy_per_atom": [-0.1695653]}