{"includesElement": ["", "Ge", "Sc", "Rh"], "includesElement___series_id": [5, 8], "includesElement__abundance_crust": [1.5, 22.0, 0.001], "includesElement__atomic_number": [32, 21, 45], "includesElement__atomic_radius": [125.0, 160.0, 135.0], "includesElement__atomic_radius_rahm": [234.0, 263.0, 233.0], "includesElement__atomic_volume": [13.6, 15.0, 8.3], "includesElement__atomic_weight": [72.63, 44.95591, 102.9055], "includesElement__covalent_radius_cordero": [120.0, 170.0, 142.0], "includesElement__covalent_radius_pyykko": [121.0, 148.0, 125.0], "includesElement__covalent_radius_pyykko_double": [111.0, 116.0, 110.0], "includesElement__covalent_radius_pyykko_triple": [114.0, 106.0], "includesElement__density": [5.3234, 2.99, 12.4], "includesElement__dipole_polarizability": [40.0, 97.0, 66.0], "includesElement__dipole_polarizability_unc": [1.0, 10.0], "includesElement__discovery_year": [1886, 1879, 1803], "includesElement__electron_affinity": [1.232712, 0.188, 1.137], "includesElement__electronegativity_allred-rochow": [0.0003859026, 0.0001369613, 0.0002176], "includesElement__electronegativity_cottrell-sutton": [0.2160884, 0.1423737, 0.1649242], "includesElement__electronegativity_ghosh": [0.1895892, 0.1193833, 0.1408379], "includesElement__electronegativity_gordy": [0.04669421, 0.02027027, 0.0272], "includesElement__electronegativity_mulliken": [4.566073, 3.374745, 4.29795], "includesElement__electronegativity_nagle": [0.4641589, 0.3138941, 0.5147142], "includesElement__electronegativity_pauling": [2.01, 1.36, 2.28], "includesElement__electronegativity_sanderson": [0.8001471, 0.3038674, 0.9761915], "includesElement__en_ghosh": [0.1895892, 0.1193833, 0.1408379], "includesElement__en_pauling": [2.01, 1.36, 2.28], "includesElement__evaporation_heat": [328.0, 332.7, 494.0], "includesElement__fusion_heat": [36.8, 15.8, 21.8], "includesElement__glawe_number": [84, 48, 63], "includesElement__group_id": [14, 3, 9], "includesElement__heat_of_formation": [372.0, 377.8, 556.0], "includesElement__is_radioactive": [false], "includesElement__lattice_constant": [5.66, 3.31, 3.8], "includesElement__mendeleev_number": [89, 11, 64], "includesElement__molar_heat_capacity": [23.222, 25.52, 24.98], "includesElement__period": [4, 5], "includesElement__pettifor_number": [84, 20, 66], "includesElement__specific_heat_capacity": [0.32, 0.568, 0.243], "includesElement__vdw_radius": [211.0, 215.0, 210.0], "includesElement__vdw_radius_alvarez": [229.0, 258.0, 244.0], "includesElement__vdw_radius_mm3": [244.0, 261.0, 234.0], "includesElement__vdw_radius_uff": [428.0, 329.5, 292.9], "includesElement__abundance_sea": [5e-05, 6e-07], "includesElement__atomic_weight_uncertainty": [0.008, 5e-06, 2e-05], "includesElement__c6_gb": [365.0, 1570.0, 708.0], "includesElement__electronegativity_allen": [11.8, 7.042, 9.259], "includesElement__en_allen": [11.8, 7.042, 9.259], "includesElement__metallic_radius": [124.0, 144.0, 125.0], "includesElement__metallic_radius_c12": [144.0, 162.0, 134.0], "includesElement__thermal_conductivity": [60.2, 15.8, 150.0], "includesElement__vdw_radius_batsanov": [210.0, 230.0, 200.0], "includesElement__c6": [354.0, 1383.0], "includesElement__vdw_radius_dreiding": [427.0], "includesElement__vdw_radius_truhlar": [211.0], "includesElement__is_monoisotopic": [true], "includesElement__gas_basicity": [892.0, 745.4], "includesElement__proton_affinity": [914.0, 768.0], "formula": ["Ge6Rh7Sc4"], "spacegroup": ["229"], "thermalConductivity": [4.35359], "icsd": ["84201"], "band_gap": [0.0], "density": [8.254223], "density_atomic": [15.80997], "deprecated": [false], "efermi": [6.646107], "energy_above_hull": [0.0], "energy_per_atom": [-7.077381], "formation_energy_per_atom": [-0.9233693], "is_gap_direct": [false], "is_magnetic": [false], "is_metal": [true], "is_stable": [true], "nelements": [3], "nsites": [17], "num_magnetic_sites": [0], "num_unique_magnetic_sites": [0], "theoretical": [false], "total_magnetization": [7e-07], "total_magnetization_normalized_formula_units": [7e-07], "total_magnetization_normalized_vol": [2.604462e-09], "uncorrected_energy_per_atom": [-18.49645], "volume": [268.7695], "equilibrium_reaction_energy_per_atom": [-0.07794475]}