{"includesElement": ["", "Pd", "Sc"], "includesElement___series_id": [8], "includesElement__abundance_crust": [0.015, 22.0], "includesElement__atomic_number": [46, 21], "includesElement__atomic_radius": [140.0, 160.0], "includesElement__atomic_radius_rahm": [215.0, 263.0], "includesElement__atomic_volume": [8.9, 15.0], "includesElement__atomic_weight": [106.42, 44.95591], "includesElement__covalent_radius_cordero": [139.0, 170.0], "includesElement__covalent_radius_pyykko": [120.0, 148.0], "includesElement__covalent_radius_pyykko_double": [117.0, 116.0], "includesElement__covalent_radius_pyykko_triple": [112.0, 114.0], "includesElement__density": [12.0, 2.99], "includesElement__dipole_polarizability": [26.14, 97.0], "includesElement__dipole_polarizability_unc": [0.1, 10.0], "includesElement__discovery_year": [1803, 1879], "includesElement__electron_affinity": [0.562, 0.188], "includesElement__electronegativity_allred-rochow": [0.0004756944, 0.0001369613], "includesElement__electronegativity_cottrell-sutton": [0.2389212, 0.1423737], "includesElement__electronegativity_ghosh": [0.1440276, 0.1193833], "includesElement__electronegativity_gordy": [0.05708333, 0.02027027], "includesElement__electronegativity_mulliken": [4.44943, 3.374745], "includesElement__electronegativity_nagle": [0.7259357, 0.3138941], "includesElement__electronegativity_pauling": [2.2, 1.36], "includesElement__electronegativity_sanderson": [1.124263, 0.3038674], "includesElement__en_ghosh": [0.1440276, 0.1193833], "includesElement__en_pauling": [2.2, 1.36], "includesElement__evaporation_heat": [372.4, 332.7], "includesElement__fusion_heat": [17.24, 15.8], "includesElement__glawe_number": [65, 48], "includesElement__group_id": [10, 3], "includesElement__heat_of_formation": [376.6, 377.8], "includesElement__is_radioactive": [false], "includesElement__lattice_constant": [3.89, 3.31], "includesElement__mendeleev_number": [68, 11], "includesElement__molar_heat_capacity": [25.98, 25.52], "includesElement__period": [5, 4], "includesElement__pettifor_number": [69, 20], "includesElement__specific_heat_capacity": [0.246, 0.568], "includesElement__vdw_radius": [210.0, 215.0], "includesElement__vdw_radius_alvarez": [215.0, 258.0], "includesElement__vdw_radius_mm3": [237.0, 261.0], "includesElement__vdw_radius_uff": [289.9, 329.5], "includesElement__atomic_weight_uncertainty": [0.01, 5e-06], "includesElement__c6_gb": [628.0, 1570.0], "includesElement__electronegativity_allen": [9.402, 7.042], "includesElement__en_allen": [9.402, 7.042], "includesElement__metallic_radius": [128.0, 144.0], "includesElement__metallic_radius_c12": [137.0, 162.0], "includesElement__thermal_conductivity": [71.8, 15.8], "includesElement__vdw_radius_batsanov": [205.0, 230.0], "includesElement__gas_basicity": [673.4, 892.0], "includesElement__proton_affinity": [696.0, 914.0], "includesElement__abundance_sea": [6e-07], "includesElement__c6": [1383.0], "includesElement__is_monoisotopic": [true], "formula": ["Pd3Sc1"], "spacegroup": ["221"], "thermalConductivity": [6.00566], "icsd": ["105673"], "band_gap": [0.0], "density": [9.595637], "density_atomic": [15.75702], "deprecated": [false], "efermi": [5.533374], "energy_above_hull": [0.0], "energy_per_atom": [-20.93176], "formation_energy_per_atom": [-0.8618027], "homogeneous_poisson": [0.329], "is_gap_direct": [false], "is_magnetic": [false], "is_metal": [true], "is_stable": [true], "nelements": [2], "nsites": [4], "num_magnetic_sites": [0], "num_unique_magnetic_sites": [0], "theoretical": [false], "total_magnetization": [1.2e-06], "total_magnetization_normalized_formula_units": [1.2e-06], "total_magnetization_normalized_vol": [1.903913e-08], "uncorrected_energy_per_atom": [-20.93176], "universal_anisotropy": [1.28], "volume": [63.0281], "equilibrium_reaction_energy_per_atom": [-0.4074919]}