{"includesElement": ["", "Sb", "Hf", "Ru"], "includesElement___series_id": [5, 8], "includesElement__abundance_crust": [0.2, 3.0, 0.001], "includesElement__atomic_number": [51, 72, 44], "includesElement__atomic_radius": [145.0, 155.0, 130.0], "includesElement__atomic_radius_rahm": [246.0, 264.0, 237.0], "includesElement__atomic_volume": [18.4, 13.6, 8.3], "includesElement__atomic_weight": [121.76, 178.49, 101.07], "includesElement__covalent_radius_cordero": [139.0, 175.0, 146.0], "includesElement__covalent_radius_pyykko": [140.0, 152.0, 125.0], "includesElement__covalent_radius_pyykko_double": [133.0, 128.0, 114.0], "includesElement__covalent_radius_pyykko_triple": [127.0, 122.0, 103.0], "includesElement__density": [6.68, 13.3, 12.1], "includesElement__dipole_polarizability": [43.0, 103.0, 72.0], "includesElement__dipole_polarizability_unc": [2.0, 6.0, 10.0], "includesElement__electron_affinity": [1.046, 0.014, 1.05], "includesElement__electronegativity_allred-rochow": [0.0003214286, 0.00013634, 0.000208], "includesElement__electronegativity_cottrell-sutton": [0.212132, 0.1439572, 0.1612452], "includesElement__electronegativity_ghosh": [0.1918774, 0.229987, 0.1376494], "includesElement__electronegativity_gordy": [0.045, 0.02072368, 0.026], "includesElement__electronegativity_mulliken": [4.827195, 3.419535, 4.20525], "includesElement__electronegativity_nagle": [0.4880907, 0.3386421, 0.4807499], "includesElement__electronegativity_pauling": [2.05, 1.3, 2.2], "includesElement__electronegativity_sanderson": [0.7762722, 0.7352125, 0.9579373], "includesElement__en_ghosh": [0.1918774, 0.229987, 0.1376494], "includesElement__en_pauling": [2.05, 1.3, 2.2], "includesElement__evaporation_heat": [195.2, 575.0], "includesElement__fusion_heat": [20.08, 25.1, 25.5], "includesElement__glawe_number": [91, 50, 61], "includesElement__group_id": [15, 4, 8], "includesElement__heat_of_formation": [264.4, 618.4, 650.6], "includesElement__is_radioactive": [false], "includesElement__lattice_constant": [4.51, 3.2, 2.7], "includesElement__mendeleev_number": [96, 45, 60], "includesElement__molar_heat_capacity": [25.23, 25.73, 24.06], "includesElement__period": [5, 6], "includesElement__pettifor_number": [88, 50, 63], "includesElement__specific_heat_capacity": [0.207, 0.144, 0.238], "includesElement__vdw_radius": [206.0, 223.0, 213.0], "includesElement__vdw_radius_alvarez": [247.0, 263.0, 246.0], "includesElement__vdw_radius_mm3": [252.0, 253.0, 234.0], "includesElement__vdw_radius_uff": [442.0, 314.1, 296.3], "includesElement__abundance_sea": [0.00024, 7e-06, 7e-07], "includesElement__atomic_weight_uncertainty": [0.001, 0.02], "includesElement__c6_gb": [504.0, 1040.0, 809.0], "includesElement__covalent_radius_bragg": [140.0], "includesElement__electronegativity_allen": [11.74, 6.83, 9.1], "includesElement__en_allen": [11.74, 6.83, 9.1], "includesElement__metallic_radius": [139.0, 144.0, 125.0], "includesElement__metallic_radius_c12": [166.0, 159.0, 134.0], "includesElement__thermal_conductivity": [24.43, 23.0, 117.0], "includesElement__vdw_radius_batsanov": [220.0, 225.0, 205.0], "includesElement__c6": [492.0], "includesElement__vdw_radius_dreiding": [435.0], "includesElement__vdw_radius_truhlar": [206.0], "includesElement__discovery_year": [1923, 1844], "includesElement__gas_basicity": [751.4], "includesElement__proton_affinity": [774.0], "formula": ["Hf1Ru1Sb1"], "spacegroup": ["216"], "thermalConductivity": [6.43126], "icsd": ["107125"], "band_gap": [0.0], "density": [10.56733], "density_atomic": [21.021], "deprecated": [false], "efermi": [6.902382], "energy_above_hull": [0.1031673], "energy_per_atom": [-32.62981], "formation_energy_per_atom": [-0.5357222], "homogeneous_poisson": [0.351], "is_gap_direct": [false], "is_magnetic": [false], "is_metal": [true], "is_stable": [false], "nelements": [3], "nsites": [3], "num_magnetic_sites": [0], "num_unique_magnetic_sites": [0], "theoretical": [false], "total_magnetization": [0.0002524], "total_magnetization_normalized_formula_units": [0.0002524], "total_magnetization_normalized_vol": [4.002348e-06], "uncorrected_energy_per_atom": [-8.326622], "universal_anisotropy": [0.086], "volume": [63.06299]}