{"includesElement": ["", "Tb", "Ir", "In"], "includesElement___series_id": [9, 8, 7], "includesElement__abundance_crust": [1.2, 0.001, 0.25], "includesElement__atomic_number": [65, 77, 49], "includesElement__atomic_radius": [175.0, 135.0, 155.0], "includesElement__atomic_radius_rahm": [276.0, 240.0, 246.0], "includesElement__atomic_volume": [19.2, 8.54, 15.7], "includesElement__atomic_weight": [158.9254, 192.217, 114.818], "includesElement__covalent_radius_cordero": [194.0, 141.0, 142.0], "includesElement__covalent_radius_pyykko": [168.0, 122.0, 142.0], "includesElement__covalent_radius_pyykko_double": [135.0, 115.0, 136.0], "includesElement__density": [8.23, 22.5622, 7.31], "includesElement__dipole_polarizability": [170.0, 54.0, 65.0], "includesElement__dipole_polarizability_unc": [20.0, 7.0, 4.0], "includesElement__discovery_year": [1843, 1804, 1863], "includesElement__electron_affinity": [1.165, 1.5638, 0.3], "includesElement__electronegativity_allred-rochow": [0.0001009779, 0.0002620263, 0.0002479667], "includesElement__electronegativity_cottrell-sutton": [0.130247, 0.1787938, 0.1876467], "includesElement__electronegativity_ghosh": [0.198863, 0.25106, 0.16423], "includesElement__electronegativity_gordy": [0.01696429, 0.03196721, 0.03521127], "includesElement__electronegativity_mulliken": [3.5144, 5.26541, 3.043178], "includesElement__electronegativity_nagle": [0.4014652, 0.5503212, 0.3587038], "includesElement__electronegativity_sanderson": [0.5163695, 1.475998, 0.7172747], "includesElement__en_ghosh": [0.198863, 0.25106, 0.16423], "includesElement__evaporation_heat": [389.0, 604.0, 225.1], "includesElement__glawe_number": [25, 62, 80], "includesElement__heat_of_formation": [388.7, 669.0, 243.0], "includesElement__is_radioactive": [false], "includesElement__lattice_constant": [3.6, 3.84, 4.59], "includesElement__mendeleev_number": [29, 65, 84], "includesElement__molar_heat_capacity": [28.91, 25.1, 26.74], "includesElement__period": [6, 5], "includesElement__pettifor_number": [26, 65, 79], "includesElement__specific_heat_capacity": [0.182, 0.131, 0.233], "includesElement__vdw_radius": [233.0, 213.0, 193.0], "includesElement__vdw_radius_alvarez": [279.0, 241.0, 243.0], "includesElement__vdw_radius_mm3": [270.0, 236.0, 264.0], "includesElement__vdw_radius_uff": [345.1, 284.0, 446.3], "includesElement__abundance_sea": [1.4e-07, 0.02], "includesElement__atomic_weight_uncertainty": [2e-05, 0.003, 0.001], "includesElement__c6_gb": [2590.0, 522.0, 643.0], "includesElement__thermal_conductivity": [11.1, 147.0, 81.8], "includesElement__is_monoisotopic": [true], "includesElement__covalent_radius_pyykko_triple": [107.0, 146.0], "includesElement__electronegativity_pauling": [2.2, 1.78], "includesElement__en_pauling": [2.2, 1.78], "includesElement__fusion_heat": [27.61, 3.24], "includesElement__group_id": [9, 13], "includesElement__electronegativity_allen": [9.96, 9.793], "includesElement__en_allen": [9.96, 9.793], "includesElement__metallic_radius": [127.0, 142.0], "includesElement__metallic_radius_c12": [136.0, 158.0], "includesElement__vdw_radius_batsanov": [200.0, 220.0], "includesElement__c6": [779.0], "includesElement__vdw_radius_dreiding": [459.0], "includesElement__vdw_radius_bondi": [193.0], "formula": ["In3Ir3Tb3"], "spacegroup": ["189"], "thermalConductivity": [1.86197], "icsd": ["414476"], "band_gap": [0.0], "density": [12.10122], "density_atomic": [21.31316], "deprecated": [false], "efermi": [6.620163], "energy_above_hull": [0.0], "energy_per_atom": [-6.110117], "formation_energy_per_atom": [-0.6982928], "is_gap_direct": [false], "is_magnetic": [false], "is_metal": [true], "is_stable": [true], "nelements": [3], "nsites": [9], "num_magnetic_sites": [0], "num_unique_magnetic_sites": [0], "theoretical": [false], "total_magnetization": [5e-07], "total_magnetization_normalized_formula_units": [1.666667e-07], "total_magnetization_normalized_vol": [2.606632e-09], "uncorrected_energy_per_atom": [-36.22604], "volume": [191.8184], "equilibrium_reaction_energy_per_atom": [-0.06404806]}