{"includesElement": ["", "Ca", "N", "Ag"], "includesElement___series_id": [4, 1, 8], "includesElement__abundance_crust": [41500.0, 19.0, 0.075], "includesElement__atomic_number": [20, 7, 47], "includesElement__atomic_radius": [180.0, 65.0, 160.0], "includesElement__atomic_radius_rahm": [270.0, 179.0, 225.0], "includesElement__atomic_volume": [29.9, 17.3, 10.3], "includesElement__atomic_weight": [40.078, 14.007, 107.8682], "includesElement__covalent_radius_cordero": [176.0, 71.0, 145.0], "includesElement__covalent_radius_pyykko": [171.0, 71.0, 128.0], "includesElement__covalent_radius_pyykko_double": [147.0, 60.0, 139.0], "includesElement__covalent_radius_pyykko_triple": [133.0, 54.0, 137.0], "includesElement__density": [1.54, 0.001145, 10.5], "includesElement__dipole_polarizability": [160.8, 7.4, 55.0], "includesElement__dipole_polarizability_unc": [4.0, 0.2, 8.0], "includesElement__discovery_year": [1808, 1772], "includesElement__electron_affinity": [0.02455, -1.4, 1.302], "includesElement__electronegativity_allred-rochow": [9.746589e-05, 0.000773656, 0.0002258301], "includesElement__electronegativity_cottrell-sutton": [0.1290994, 0.2343706, 0.1700184], "includesElement__electronegativity_ghosh": [0.1154119, 0.26493, 0.1472165], "includesElement__electronegativity_gordy": [0.01666667, 0.05492958, 0.02890625], "includesElement__electronegativity_mulliken": [3.068853, 6.567065, 4.439117], "includesElement__electronegativity_nagle": [0.2316939, 0.8774979, 0.5848035], "includesElement__electronegativity_pauling": [1.0, 3.04, 1.93], "includesElement__electronegativity_sanderson": [0.1901577, 0.577482, 0.9437955], "includesElement__en_ghosh": [0.1154119, 0.26493, 0.1472165], "includesElement__en_pauling": [1.0, 3.04, 1.93], "includesElement__evaporation_heat": [153.6, 254.1], "includesElement__fusion_heat": [9.2, 11.95], "includesElement__glawe_number": [16, 88, 67], "includesElement__group_id": [2, 15, 11], "includesElement__heat_of_formation": [177.8, 472.44, 284.9], "includesElement__is_radioactive": [false], "includesElement__lattice_constant": [5.58, 4.039, 4.09], "includesElement__mendeleev_number": [7, 93, 72], "includesElement__molar_heat_capacity": [25.929, 29.124, 25.35], "includesElement__period": [4, 2, 5], "includesElement__pettifor_number": [16, 100, 71], "includesElement__specific_heat_capacity": [0.647, 1.04, 0.235], "includesElement__vdw_radius": [231.0, 155.0, 211.0], "includesElement__vdw_radius_alvarez": [262.0, 166.0, 253.0], "includesElement__vdw_radius_mm3": [281.0, 193.0, 243.0], "includesElement__vdw_radius_uff": [339.9, 366.0, 314.8], "includesElement__abundance_sea": [412.0, 0.5, 4e-05], "includesElement__atomic_weight_uncertainty": [0.004, 0.0002], "includesElement__c6_gb": [2230.0, 25.7, 341.0], "includesElement__covalent_radius_bragg": [170.0, 65.0, 177.0], "includesElement__electronegativity_allen": [6.113, 18.13, 11.05], "includesElement__en_allen": [6.113, 18.13, 11.05], "includesElement__metallic_radius": [174.0, 134.0], "includesElement__metallic_radius_c12": [197.0, 53.0, 144.0], "includesElement__vdw_radius_batsanov": [240.0, 160.0, 210.0], "includesElement__c6": [2163.0, 24.2], "includesElement__vdw_radius_truhlar": [231.0], "includesElement__thermal_conductivity": [0.026, 429.0], "includesElement__vdw_radius_dreiding": [366.21], "includesElement__gas_basicity": [318.7], "includesElement__proton_affinity": [342.2], "includesElement__vdw_radius_bondi": [155.0], "includesElement__vdw_radius_rt": [164.0], "formula": ["Ag8Ca19N7"], "spacegroup": ["225"], "thermalConductivity": [0.909428], "icsd": ["410819"], "band_gap": [0.0], "density": [3.685483], "density_atomic": [22.82593], "deprecated": [false], "efermi": [3.108103], "energy_above_hull": [0.03964371], "energy_per_atom": [-11.46279], "formation_energy_per_atom": [-0.6252611], "is_gap_direct": [false], "is_magnetic": [false], "is_metal": [true], "is_stable": [false], "nelements": [3], "nsites": [34], "num_magnetic_sites": [0], "num_unique_magnetic_sites": [0], "theoretical": [false], "total_magnetization": [1.627772], "total_magnetization_normalized_formula_units": [1.627772], "total_magnetization_normalized_vol": [0.002097423], "uncorrected_energy_per_atom": [-4.049069], "volume": [776.0817]}