{"includesElement": ["", "Ca", "Zn", "N"], "includesElement___series_id": [4, 8, 1], "includesElement__abundance_crust": [41500.0, 70.0, 19.0], "includesElement__atomic_number": [20, 30, 7], "includesElement__atomic_radius": [180.0, 135.0, 65.0], "includesElement__atomic_radius_rahm": [270.0, 222.0, 179.0], "includesElement__atomic_volume": [29.9, 9.2, 17.3], "includesElement__atomic_weight": [40.078, 65.38, 14.007], "includesElement__covalent_radius_cordero": [176.0, 122.0, 71.0], "includesElement__covalent_radius_pyykko": [171.0, 118.0, 71.0], "includesElement__covalent_radius_pyykko_double": [147.0, 120.0, 60.0], "includesElement__covalent_radius_pyykko_triple": [133.0, 54.0], "includesElement__density": [1.54, 7.134, 0.001145], "includesElement__dipole_polarizability": [160.8, 38.67, 7.4], "includesElement__dipole_polarizability_unc": [4.0, 0.3, 0.2], "includesElement__discovery_year": [1808, 1772], "includesElement__electron_affinity": [0.02455, -1.4], "includesElement__electronegativity_allred-rochow": [9.746589e-05, 0.0003124102, 0.000773656], "includesElement__electronegativity_cottrell-sutton": [0.1290994, 0.1920011, 0.2343706], "includesElement__electronegativity_ghosh": [0.1154119, 0.1551518, 0.26493], "includesElement__electronegativity_gordy": [0.01666667, 0.03686441, 0.05492958], "includesElement__electronegativity_mulliken": [3.068853, 4.6971, 6.567065], "includesElement__electronegativity_nagle": [0.2316939, 0.6770213, 0.8774979], "includesElement__electronegativity_pauling": [1.0, 1.65, 3.04], "includesElement__electronegativity_sanderson": [0.1901577, 0.8100877, 0.577482], "includesElement__en_ghosh": [0.1154119, 0.1551518, 0.26493], "includesElement__en_pauling": [1.0, 1.65, 3.04], "includesElement__evaporation_heat": [153.6, 114.8], "includesElement__fusion_heat": [9.2, 7.28], "includesElement__glawe_number": [16, 74, 88], "includesElement__group_id": [2, 12, 15], "includesElement__heat_of_formation": [177.8, 130.4, 472.44], "includesElement__is_radioactive": [false], "includesElement__lattice_constant": [5.58, 2.66, 4.039], "includesElement__mendeleev_number": [7, 77, 93], "includesElement__molar_heat_capacity": [25.929, 25.39, 29.124], "includesElement__period": [4, 2], "includesElement__pettifor_number": [16, 76, 100], "includesElement__specific_heat_capacity": [0.647, 0.388, 1.04], "includesElement__vdw_radius": [231.0, 201.0, 155.0], "includesElement__vdw_radius_alvarez": [262.0, 239.0, 166.0], "includesElement__vdw_radius_mm3": [281.0, 229.0, 193.0], "includesElement__vdw_radius_uff": [339.9, 276.3, 366.0], "includesElement__abundance_sea": [412.0, 0.0049, 0.5], "includesElement__atomic_weight_uncertainty": [0.004, 0.02], "includesElement__c6_gb": [2230.0, 276.0, 25.7], "includesElement__covalent_radius_bragg": [170.0, 132.0, 65.0], "includesElement__electronegativity_allen": [6.113, 9.395, 18.13], "includesElement__en_allen": [6.113, 9.395, 18.13], "includesElement__metallic_radius": [174.0, 121.0], "includesElement__metallic_radius_c12": [197.0, 134.0, 53.0], "includesElement__vdw_radius_batsanov": [240.0, 210.0, 160.0], "includesElement__c6": [2163.0, 284.0, 24.2], "includesElement__vdw_radius_truhlar": [231.0], "includesElement__thermal_conductivity": [116.0, 0.026], "includesElement__gas_basicity": [586.0, 318.7], "includesElement__proton_affinity": [608.6, 342.2], "includesElement__vdw_radius_dreiding": [366.21], "includesElement__vdw_radius_bondi": [155.0], "includesElement__vdw_radius_rt": [164.0], "formula": ["Ca2N2Zn1"], "spacegroup": ["139"], "thermalConductivity": [8.05313], "icsd": ["69049"], "band_gap": [0.7618], "density": [3.583957], "density_atomic": [16.08466], "deprecated": [false], "efermi": [3.047177], "energy_above_hull": [0.0], "energy_per_atom": [-5.238459], "formation_energy_per_atom": [-0.8489589], "homogeneous_poisson": [0.27], "is_gap_direct": [false], "is_magnetic": [false], "is_metal": [false], "is_stable": [true], "nelements": [3], "nsites": [5], "num_magnetic_sites": [0], "num_unique_magnetic_sites": [0], "theoretical": [false], "total_magnetization": [0.0], "total_magnetization_normalized_formula_units": [0.0], "total_magnetization_normalized_vol": [0.0], "uncorrected_energy_per_atom": [-9.123392], "universal_anisotropy": [0.913], "volume": [80.42332], "cbm": [3.7229], "e_electronic": [6.340129], "e_ionic": [9.64717], "e_total": [15.9873], "equilibrium_reaction_energy_per_atom": [-0.1214831], "n": [2.517961], "vbm": [2.9611]}