{"includesElement": ["", "Ni", "F", "Rb"], "includesElement___series_id": [8, 6, 3], "includesElement__abundance_crust": [84.0, 585.0, 90.0], "includesElement__atomic_number": [28, 9, 37], "includesElement__atomic_radius": [135.0, 50.0, 235.0], "includesElement__atomic_radius_rahm": [229.0, 163.0, 240.0], "includesElement__atomic_volume": [6.6, 17.1, 55.9], "includesElement__atomic_weight": [58.6934, 18.9984, 85.4678], "includesElement__covalent_radius_cordero": [124.0, 57.0, 220.0], "includesElement__covalent_radius_pyykko": [110.0, 64.0, 210.0], "includesElement__covalent_radius_pyykko_double": [101.0, 59.0, 202.0], "includesElement__covalent_radius_pyykko_triple": [101.0, 53.0], "includesElement__density": [8.9, 0.001553, 1.53], "includesElement__dipole_polarizability": [49.0, 3.74, 319.8], "includesElement__dipole_polarizability_unc": [3.0, 0.08, 0.3], "includesElement__discovery_year": [1751, 1886, 1861], "includesElement__electron_affinity": [1.156, 3.40119, 0.48592], "includesElement__electronegativity_allred-rochow": [0.0003347107, 0.001269531, 4.988662e-05], "includesElement__electronegativity_cottrell-sutton": [0.1918806, 0.2850439, 0.1023533], "includesElement__electronegativity_ghosh": [0.1472068, 0.344443, 0.104686], "includesElement__electronegativity_gordy": [0.03681818, 0.08125, 0.01047619], "includesElement__electronegativity_mulliken": [4.397939, 10.412, 2.331524], "includesElement__electronegativity_nagle": [0.588755, 1.232373, 0.1462314], "includesElement__electronegativity_pauling": [1.91, 3.98, 0.82], "includesElement__electronegativity_sanderson": [0.937704, 1.017681, 0.1764136], "includesElement__en_ghosh": [0.1472068, 0.344443, 0.104686], "includesElement__en_pauling": [1.91, 3.98, 0.82], "includesElement__evaporation_heat": [378.6, 6.54, 75.8], "includesElement__fusion_heat": [17.61, 0.51, 2.2], "includesElement__glawe_number": [69, 102, 9], "includesElement__group_id": [10, 17, 1], "includesElement__heat_of_formation": [430.1, 79.335, 80.9], "includesElement__is_radioactive": [false], "includesElement__lattice_constant": [3.52, 5.59], "includesElement__mendeleev_number": [67, 106, 4], "includesElement__molar_heat_capacity": [26.07, 31.304, 31.06], "includesElement__period": [4, 2, 5], "includesElement__pettifor_number": [67, 102, 9], "includesElement__specific_heat_capacity": [0.444, 0.824, 0.363], "includesElement__vdw_radius": [197.0, 147.0, 303.0], "includesElement__vdw_radius_alvarez": [240.0, 146.0, 321.0], "includesElement__vdw_radius_mm3": [222.0, 171.0, 325.0], "includesElement__vdw_radius_uff": [283.4, 336.4, 411.4], "includesElement__abundance_sea": [0.00056, 1.3, 0.12], "includesElement__atomic_weight_uncertainty": [0.0004, 6e-09, 0.0003], "includesElement__c6_gb": [393.0, 10.2, 4660.0], "includesElement__covalent_radius_bragg": [135.0, 67.0, 225.0], "includesElement__electronegativity_allen": [11.13, 24.8, 4.177], "includesElement__en_allen": [11.13, 24.8, 4.177], "includesElement__metallic_radius": [115.0, 216.0], "includesElement__metallic_radius_c12": [124.0, 248.0], "includesElement__thermal_conductivity": [90.9, 0.028, 58.2], "includesElement__vdw_radius_batsanov": [200.0, 150.0, 290.0], "includesElement__c6": [373.0, 9.52, 4769.0], "includesElement__gas_basicity": [714.1, 315.1], "includesElement__proton_affinity": [737.0, 340.1], "includesElement__is_monoisotopic": [true], "includesElement__vdw_radius_dreiding": [347.2], "includesElement__vdw_radius_bondi": [147.0], "includesElement__vdw_radius_rt": [146.0], "includesElement__vdw_radius_truhlar": [303.0], "formula": ["F6Ni1Rb2"], "spacegroup": ["225"], "thermalConductivity": [1.46172], "icsd": ["29005"], "band_gap": [2.4216], "density": [3.907518], "density_atomic": [16.22495], "deprecated": [false], "efermi": [-3.175957], "energy_above_hull": [0.0], "energy_per_atom": [-4.52583], "formation_energy_per_atom": [-2.391377], "is_gap_direct": [false], "is_magnetic": [false], "is_metal": [false], "is_stable": [true], "nelements": [3], "nsites": [9], "num_magnetic_sites": [0], "num_unique_magnetic_sites": [0], "theoretical": [false], "total_magnetization": [0.0], "total_magnetization_normalized_formula_units": [0.0], "total_magnetization_normalized_vol": [0.0], "uncorrected_energy_per_atom": [-8.971593], "volume": [146.0245], "cbm": [-0.9115], "e_electronic": [2.240672], "e_ionic": [2.968572], "e_total": [5.209244], "equilibrium_reaction_energy_per_atom": [-0.1304745], "n": [1.496888], "vbm": [-3.3331]}