{"includesElement": ["", "La", "In", "Au"], "includesElement___series_id": [9, 7, 8], "includesElement__abundance_crust": [39.0, 0.25, 0.004], "includesElement__atomic_number": [57, 49, 79], "includesElement__atomic_radius": [195.0, 155.0, 135.0], "includesElement__atomic_radius_rahm": [284.0, 246.0, 226.0], "includesElement__atomic_volume": [22.5, 15.7, 10.2], "includesElement__atomic_weight": [138.9055, 114.818, 196.9666], "includesElement__covalent_radius_cordero": [207.0, 142.0, 136.0], "includesElement__covalent_radius_pyykko": [180.0, 142.0, 124.0], "includesElement__covalent_radius_pyykko_double": [139.0, 136.0, 121.0], "includesElement__covalent_radius_pyykko_triple": [139.0, 146.0, 123.0], "includesElement__density": [6.15, 7.31, 19.3], "includesElement__dipole_polarizability": [215.0, 65.0, 36.0], "includesElement__dipole_polarizability_unc": [20.0, 4.0, 3.0], "includesElement__discovery_year": [1839, 1863], "includesElement__electron_affinity": [0.47, 0.3, 2.30863], "includesElement__electronegativity_allred-rochow": [9.259259e-05, 0.0002479667, 0.0002406348], "includesElement__electronegativity_cottrell-sutton": [0.1290994, 0.1876467, 0.1727388], "includesElement__electronegativity_ghosh": [0.163142, 0.16423, 0.26137], "includesElement__electronegativity_gordy": [0.01666667, 0.03521127, 0.02983871], "includesElement__electronegativity_mulliken": [3.02345, 3.043178, 5.767091], "includesElement__electronegativity_nagle": [0.240747, 0.3587038, 0.67354], "includesElement__electronegativity_pauling": [1.1, 1.78, 2.4], "includesElement__electronegativity_sanderson": [0.3946505, 0.7172747, 1.426701], "includesElement__en_ghosh": [0.163142, 0.16423, 0.26137], "includesElement__en_pauling": [1.1, 1.78, 2.4], "includesElement__evaporation_heat": [402.0, 225.1, 340.0], "includesElement__fusion_heat": [8.5, 3.24, 12.68], "includesElement__glawe_number": [32, 80, 66], "includesElement__group_id": [3, 13, 11], "includesElement__heat_of_formation": [431.0, 243.0, 368.2], "includesElement__is_radioactive": [false], "includesElement__lattice_constant": [3.75, 4.59, 4.08], "includesElement__mendeleev_number": [13, 84, 73], "includesElement__molar_heat_capacity": [27.11, 26.74, 25.418], "includesElement__period": [6, 5], "includesElement__pettifor_number": [33, 79, 70], "includesElement__specific_heat_capacity": [0.195, 0.233, 0.129], "includesElement__vdw_radius": [243.0, 193.0, 214.0], "includesElement__vdw_radius_alvarez": [298.0, 243.0, 232.0], "includesElement__vdw_radius_mm3": [278.0, 264.0, 243.0], "includesElement__vdw_radius_uff": [352.2, 446.3, 329.3], "includesElement__abundance_sea": [3.4e-06, 0.02, 4e-06], "includesElement__atomic_weight_uncertainty": [7e-05, 0.001, 5e-06], "includesElement__c6_gb": [3730.0, 643.0, 427.0], "includesElement__metallic_radius": [169.0, 142.0, 134.0], "includesElement__metallic_radius_c12": [187.0, 158.0, 144.0], "includesElement__thermal_conductivity": [13.4, 81.8, 318.0], "includesElement__vdw_radius_batsanov": [250.0, 220.0, 210.0], "includesElement__gas_basicity": [991.9], "includesElement__proton_affinity": [1013.0], "includesElement__electronegativity_allen": [9.793, 11.33], "includesElement__en_allen": [9.793, 11.33], "includesElement__c6": [779.0], "includesElement__vdw_radius_dreiding": [459.0], "includesElement__vdw_radius_bondi": [193.0], "includesElement__is_monoisotopic": [true], "formula": ["Au3In3La3"], "spacegroup": ["189"], "thermalConductivity": [1.21836], "icsd": ["58496"], "band_gap": [0.0], "density": [9.805019], "density_atomic": [25.44236], "deprecated": [false], "efermi": [7.83922], "energy_above_hull": [0.0], "energy_per_atom": [-4.408407], "formation_energy_per_atom": [-0.7520529], "is_gap_direct": [false], "is_magnetic": [false], "is_metal": [true], "is_stable": [true], "nelements": [3], "nsites": [9], "num_magnetic_sites": [0], "num_unique_magnetic_sites": [0], "theoretical": [false], "total_magnetization": [5.2e-06], "total_magnetization_normalized_formula_units": [1.733333e-06], "total_magnetization_normalized_vol": [2.270929e-08], "uncorrected_energy_per_atom": [-35.17992], "volume": [228.9812], "equilibrium_reaction_energy_per_atom": [-0.08632481]}