{"includesElement": ["", "Si", "Ir", "Dy"], "includesElement___series_id": [5, 8, 9], "includesElement__abundance_crust": [282000.0, 0.001, 5.2], "includesElement__atomic_number": [14, 77, 66], "includesElement__atomic_radius": [110.0, 135.0, 175.0], "includesElement__atomic_radius_rahm": [232.0, 240.0, 275.0], "includesElement__atomic_volume": [12.1, 8.54, 19.0], "includesElement__atomic_weight": [28.085, 192.217, 162.5], "includesElement__covalent_radius_cordero": [111.0, 141.0, 192.0], "includesElement__covalent_radius_pyykko": [116.0, 122.0, 167.0], "includesElement__covalent_radius_pyykko_double": [107.0, 115.0, 133.0], "includesElement__covalent_radius_pyykko_triple": [102.0, 107.0], "includesElement__density": [2.3296, 22.5622, 8.55], "includesElement__dipole_polarizability": [37.3, 54.0, 163.0], "includesElement__dipole_polarizability_unc": [0.7, 7.0, 15.0], "includesElement__discovery_year": [1824, 1804, 1886], "includesElement__electron_affinity": [1.389521, 1.5638, 0.352], "includesElement__electronegativity_allred-rochow": [0.0003084126, 0.0002620263, 0.0001021908], "includesElement__electronegativity_cottrell-sutton": [0.1891451, 0.1787938, 0.1306364], "includesElement__electronegativity_ghosh": [0.178503, 0.25106, 0.20333], "includesElement__electronegativity_gordy": [0.03577586, 0.03196721, 0.01706587], "includesElement__electronegativity_mulliken": [4.770602, 5.26541, 3.145525], "includesElement__electronegativity_nagle": [0.4750986, 0.5503212, 0.4191131], "includesElement__electronegativity_pauling": [1.9, 2.2, 1.22], "includesElement__electronegativity_sanderson": [0.3468158, 1.475998, 0.5297338], "includesElement__en_ghosh": [0.178503, 0.25106, 0.20333], "includesElement__en_pauling": [1.9, 2.2, 1.22], "includesElement__evaporation_heat": [383.0, 604.0, 291.0], "includesElement__fusion_heat": [50.6, 27.61], "includesElement__glawe_number": [85, 62, 24], "includesElement__group_id": [14, 9], "includesElement__heat_of_formation": [450.0, 669.0, 290.4], "includesElement__is_radioactive": [false], "includesElement__lattice_constant": [5.43, 3.84, 3.59], "includesElement__mendeleev_number": [88, 65, 31], "includesElement__molar_heat_capacity": [19.99, 25.1, 28.16], "includesElement__period": [3, 6], "includesElement__pettifor_number": [85, 65, 25], "includesElement__specific_heat_capacity": [0.712, 0.131, 0.173], "includesElement__vdw_radius": [210.0, 213.0, 231.0], "includesElement__vdw_radius_alvarez": [219.0, 241.0, 287.0], "includesElement__vdw_radius_mm3": [229.0, 236.0, 290.0], "includesElement__vdw_radius_uff": [429.5, 284.0, 342.8], "includesElement__abundance_sea": [2.2, 9.1e-07], "includesElement__c6_gb": [308.0, 522.0, 2430.0], "includesElement__covalent_radius_bragg": [117.0], "includesElement__electronegativity_allen": [11.33, 9.96], "includesElement__en_allen": [11.33, 9.96], "includesElement__metallic_radius": [117.0, 127.0], "includesElement__metallic_radius_c12": [138.0, 136.0], "includesElement__thermal_conductivity": [149.0, 147.0, 10.7], "includesElement__vdw_radius_batsanov": [210.0, 200.0], "includesElement__c6": [305.0], "includesElement__vdw_radius_dreiding": [427.0], "includesElement__gas_basicity": [814.1], "includesElement__proton_affinity": [837.0], "includesElement__vdw_radius_bondi": [210.0], "includesElement__atomic_weight_uncertainty": [0.003, 0.001], "formula": ["Dy1Ir2Si2"], "spacegroup": ["139"], "thermalConductivity": [14.2256], "icsd": ["57230"], "band_gap": [0.0], "density": [12.23591], "density_atomic": [16.36952], "deprecated": [false], "efermi": [8.176688], "energy_above_hull": [0.0], "energy_per_atom": [-7.719728], "formation_energy_per_atom": [-1.090552], "homogeneous_poisson": [0.251], "is_gap_direct": [false], "is_magnetic": [false], "is_metal": [true], "is_stable": [true], "nelements": [3], "nsites": [5], "num_magnetic_sites": [0], "num_unique_magnetic_sites": [0], "theoretical": [false], "total_magnetization": [2.6e-06], "total_magnetization_normalized_formula_units": [2.6e-06], "total_magnetization_normalized_vol": [3.176636e-08], "uncorrected_energy_per_atom": [-32.03983], "universal_anisotropy": [0.144], "volume": [81.84759], "equilibrium_reaction_energy_per_atom": [-0.18817]}