{"includesElement": ["", "P", "Sc", "Ru"], "includesElement___series_id": [1, 8], "includesElement__abundance_crust": [1050.0, 22.0, 0.001], "includesElement__atomic_number": [15, 21, 44], "includesElement__atomic_radius": [100.0, 160.0, 130.0], "includesElement__atomic_radius_rahm": [223.0, 263.0, 237.0], "includesElement__atomic_volume": [17.0, 15.0, 8.3], "includesElement__atomic_weight": [30.97376, 44.95591, 101.07], "includesElement__covalent_radius_cordero": [107.0, 170.0, 146.0], "includesElement__covalent_radius_pyykko": [111.0, 148.0, 125.0], "includesElement__covalent_radius_pyykko_double": [102.0, 116.0, 114.0], "includesElement__covalent_radius_pyykko_triple": [94.0, 114.0, 103.0], "includesElement__density": [1.823, 2.99, 12.1], "includesElement__dipole_polarizability": [25.0, 97.0, 72.0], "includesElement__dipole_polarizability_unc": [1.0, 10.0], "includesElement__discovery_year": [1669, 1879, 1844], "includesElement__electron_affinity": [0.746607, 0.188, 1.05], "includesElement__electronegativity_allred-rochow": [0.0003895788, 0.0001369613, 0.000208], "includesElement__electronegativity_cottrell-sutton": [0.2079501, 0.1423737, 0.1612452], "includesElement__electronegativity_ghosh": [0.206931, 0.1193833, 0.1376494], "includesElement__electronegativity_gordy": [0.04324324, 0.02027027, 0.026], "includesElement__electronegativity_mulliken": [5.616646, 3.374745, 4.20525], "includesElement__electronegativity_nagle": [0.5848035, 0.3138941, 0.4807499], "includesElement__electronegativity_pauling": [2.19, 1.36, 2.2], "includesElement__electronegativity_sanderson": [0.4510269, 0.3038674, 0.9579373], "includesElement__en_ghosh": [0.206931, 0.1193833, 0.1376494], "includesElement__en_pauling": [2.19, 1.36, 2.2], "includesElement__evaporation_heat": [49.8, 332.7], "includesElement__fusion_heat": [2.51, 15.8, 25.5], "includesElement__glawe_number": [89, 48, 61], "includesElement__group_id": [15, 3, 8], "includesElement__heat_of_formation": [316.5, 377.8, 650.6], "includesElement__is_radioactive": [false], "includesElement__lattice_constant": [7.17, 3.31, 2.7], "includesElement__mendeleev_number": [94, 11, 60], "includesElement__molar_heat_capacity": [23.824, 25.52, 24.06], "includesElement__period": [3, 4, 5], "includesElement__pettifor_number": [90, 20, 63], "includesElement__specific_heat_capacity": [0.769, 0.568, 0.238], "includesElement__vdw_radius": [180.0, 215.0, 213.0], "includesElement__vdw_radius_alvarez": [190.0, 258.0, 246.0], "includesElement__vdw_radius_mm3": [222.0, 261.0, 234.0], "includesElement__vdw_radius_uff": [414.7, 329.5, 296.3], "includesElement__abundance_sea": [0.06, 6e-07, 7e-07], "includesElement__atomic_weight_uncertainty": [5e-09, 5e-06, 0.02], "includesElement__c6_gb": [187.0, 1570.0, 809.0], "includesElement__electronegativity_allen": [13.33, 7.042, 9.1], "includesElement__en_allen": [13.33, 7.042, 9.1], "includesElement__metallic_radius": [110.0, 144.0, 125.0], "includesElement__metallic_radius_c12": [128.0, 162.0, 134.0], "includesElement__vdw_radius_batsanov": [195.0, 230.0, 205.0], "includesElement__c6": [185.0, 1383.0], "includesElement__is_monoisotopic": [true], "includesElement__vdw_radius_dreiding": [415.0], "includesElement__gas_basicity": [604.8, 892.0, 751.4], "includesElement__proton_affinity": [626.8, 914.0, 774.0], "includesElement__vdw_radius_bondi": [180.0], "includesElement__thermal_conductivity": [15.8, 117.0], "formula": ["P7Ru12Sc2"], "spacegroup": ["174"], "thermalConductivity": [4.80397], "icsd": ["77791"], "band_gap": [0.0], "density": [8.662739], "density_atomic": [13.87058], "deprecated": [false], "efermi": [8.557326], "energy_above_hull": [0.0], "energy_per_atom": [-8.429068], "formation_energy_per_atom": [-0.721159], "is_gap_direct": [false], "is_magnetic": [false], "is_metal": [true], "is_stable": [true], "nelements": [3], "nsites": [21], "num_magnetic_sites": [0], "num_unique_magnetic_sites": [0], "theoretical": [false], "total_magnetization": [7e-07], "total_magnetization_normalized_formula_units": [7e-07], "total_magnetization_normalized_vol": [2.403167e-09], "uncorrected_energy_per_atom": [-19.38923], "volume": [291.2823], "equilibrium_reaction_energy_per_atom": [-0.03025052]}