{"includesElement": ["", "Al", "Ti", "Co"], "includesElement___series_id": [7, 8], "includesElement__abundance_crust": [82300.0, 5650.0, 25.0], "includesElement__atomic_number": [13, 22, 27], "includesElement__atomic_radius": [125.0, 140.0, 135.0], "includesElement__atomic_radius_rahm": [239.0, 257.0, 233.0], "includesElement__atomic_volume": [10.0, 10.6, 6.7], "includesElement__atomic_weight": [26.98154, 47.867, 58.93319], "includesElement__covalent_radius_cordero": [121.0, 160.0, 138.0], "includesElement__covalent_radius_pyykko": [126.0, 136.0, 111.0], "includesElement__covalent_radius_pyykko_double": [113.0, 117.0, 103.0], "includesElement__covalent_radius_pyykko_triple": [111.0, 108.0, 96.0], "includesElement__density": [2.7, 4.506, 8.86], "includesElement__dipole_polarizability": [57.8, 100.0, 55.0], "includesElement__dipole_polarizability_unc": [1.0, 10.0, 4.0], "includesElement__discovery_year": [1825, 1791, 1739], "includesElement__electron_affinity": [0.43283, 0.079, 0.6622565], "includesElement__electronegativity_allred-rochow": [0.0002204586, 0.0001703071, 0.0003165327], "includesElement__electronegativity_cottrell-sutton": [0.1666667, 0.1521899, 0.1874437], "includesElement__electronegativity_ghosh": [0.150078, 0.1233637, 0.1432363], "includesElement__electronegativity_gordy": [0.02777778, 0.02316176, 0.03513514], "includesElement__electronegativity_mulliken": [3.209299, 3.45356, 4.271633], "includesElement__electronegativity_nagle": [0.3730192, 0.3419952, 0.5469655], "includesElement__electronegativity_pauling": [1.61, 1.54, 1.88], "includesElement__electronegativity_sanderson": [0.2360927, 0.4055462, 0.8832424], "includesElement__en_ghosh": [0.150078, 0.1233637, 0.1432363], "includesElement__en_pauling": [1.61, 1.54, 1.88], "includesElement__evaporation_heat": [284.1, 422.6, 389.1], "includesElement__fusion_heat": [10.75, 18.8, 15.48], "includesElement__glawe_number": [78, 51, 70], "includesElement__group_id": [13, 4, 9], "includesElement__heat_of_formation": [330.9, 473.0, 426.7], "includesElement__is_radioactive": [false], "includesElement__lattice_constant": [4.05, 2.95, 2.51], "includesElement__mendeleev_number": [82, 43, 63], "includesElement__molar_heat_capacity": [24.2, 25.06, 24.81], "includesElement__period": [3, 4], "includesElement__pettifor_number": [80, 51, 64], "includesElement__specific_heat_capacity": [0.897, 0.523, 0.421], "includesElement__vdw_radius": [184.0, 211.0, 200.0], "includesElement__vdw_radius_alvarez": [225.0, 246.0, 240.0], "includesElement__vdw_radius_mm3": [236.0, 239.0, 223.0], "includesElement__vdw_radius_uff": [449.9, 317.5, 287.2], "includesElement__abundance_sea": [0.002, 0.001, 2e-05], "includesElement__atomic_weight_uncertainty": [7e-07, 0.001, 4e-06], "includesElement__c6_gb": [520.0, 1200.0, 461.0], "includesElement__covalent_radius_bragg": [135.0, 140.0, 137.0], "includesElement__electronegativity_allen": [9.539, 8.17, 10.86], "includesElement__en_allen": [9.539, 8.17, 10.86], "includesElement__metallic_radius": [125.0, 132.0, 116.0], "includesElement__metallic_radius_c12": [143.0, 147.0, 125.0], "includesElement__thermal_conductivity": [237.0, 21.9, 100.0], "includesElement__vdw_radius_batsanov": [210.0, 215.0, 200.0], "includesElement__c6": [528.0, 1044.0, 408.0], "includesElement__is_monoisotopic": [true], "includesElement__vdw_radius_dreiding": [439.0], "includesElement__vdw_radius_truhlar": [184.0], "includesElement__gas_basicity": [853.7, 719.8], "includesElement__proton_affinity": [876.0, 742.7], "formula": ["Al1Co2Ti1"], "spacegroup": ["225"], "thermalConductivity": [213.507], "icsd": ["185966"], "band_gap": [0.0], "density": [6.564754], "density_atomic": [12.1867], "deprecated": [false], "efermi": [7.103814], "energy_above_hull": [0.0], "energy_per_atom": [-12.13889], "formation_energy_per_atom": [-0.6043146], "homogeneous_poisson": [0.268], "is_gap_direct": [false], "is_magnetic": [true], "is_metal": [true], "is_stable": [true], "nelements": [3], "nsites": [4], "num_magnetic_sites": [3], "num_unique_magnetic_sites": [2], "theoretical": [false], "total_magnetization": [1.000307], "total_magnetization_normalized_formula_units": [1.000307], "total_magnetization_normalized_vol": [0.02052046], "uncorrected_energy_per_atom": [-12.13889], "universal_anisotropy": [0.201], "volume": [48.74679], "equilibrium_reaction_energy_per_atom": [-0.1225336]}