{"includesElement": ["", "Nb", "Rh"], "includesElement___series_id": [8], "includesElement__abundance_crust": [20.0, 0.001], "includesElement__atomic_number": [41, 45], "includesElement__atomic_radius": [145.0, 135.0], "includesElement__atomic_radius_rahm": [251.0, 233.0], "includesElement__atomic_volume": [10.8, 8.3], "includesElement__atomic_weight": [92.90637, 102.9055], "includesElement__covalent_radius_cordero": [164.0, 142.0], "includesElement__covalent_radius_pyykko": [147.0, 125.0], "includesElement__covalent_radius_pyykko_double": [125.0, 110.0], "includesElement__covalent_radius_pyykko_triple": [116.0, 106.0], "includesElement__density": [8.57, 12.4], "includesElement__dipole_polarizability": [98.0, 66.0], "includesElement__dipole_polarizability_unc": [8.0, 10.0], "includesElement__discovery_year": [1801, 1803], "includesElement__electron_affinity": [0.917406, 1.137], "includesElement__electronegativity_allred-rochow": [0.0001295756, 0.0002176], "includesElement__electronegativity_cottrell-sutton": [0.1380131, 0.1649242], "includesElement__electronegativity_ghosh": [0.1280782, 0.1408379], "includesElement__electronegativity_gordy": [0.01904762, 0.0272], "includesElement__electronegativity_mulliken": [3.838128, 4.29795], "includesElement__electronegativity_nagle": [0.3708924, 0.5147142], "includesElement__electronegativity_pauling": [1.6, 2.28], "includesElement__electronegativity_sanderson": [0.5561695, 0.9761915], "includesElement__en_ghosh": [0.1280782, 0.1408379], "includesElement__en_pauling": [1.6, 2.28], "includesElement__evaporation_heat": [680.0, 494.0], "includesElement__fusion_heat": [26.8, 21.8], "includesElement__glawe_number": [53, 63], "includesElement__group_id": [5, 9], "includesElement__heat_of_formation": [733.0, 556.0], "includesElement__is_radioactive": [false], "includesElement__lattice_constant": [3.3, 3.8], "includesElement__mendeleev_number": [48, 64], "includesElement__molar_heat_capacity": [24.6, 24.98], "includesElement__period": [5], "includesElement__pettifor_number": [52, 66], "includesElement__specific_heat_capacity": [0.265, 0.243], "includesElement__vdw_radius": [218.0, 210.0], "includesElement__vdw_radius_alvarez": [256.0, 244.0], "includesElement__vdw_radius_mm3": [243.0, 234.0], "includesElement__vdw_radius_uff": [316.5, 292.9], "includesElement__abundance_sea": [1e-05], "includesElement__atomic_weight_uncertainty": [2e-05], "includesElement__c6_gb": [1140.0, 708.0], "includesElement__electronegativity_allen": [8.34, 9.259], "includesElement__en_allen": [8.34, 9.259], "includesElement__metallic_radius": [134.0, 125.0], "includesElement__metallic_radius_c12": [146.0, 134.0], "includesElement__thermal_conductivity": [53.7, 150.0], "includesElement__vdw_radius_batsanov": [215.0, 200.0], "includesElement__is_monoisotopic": [true], "includesElement__gas_basicity": [745.4], "includesElement__proton_affinity": [768.0], "formula": ["Nb6Rh2"], "spacegroup": ["223"], "thermalConductivity": [9.9392], "icsd": ["105216"], "band_gap": [0.0], "density": [9.163803], "density_atomic": [17.2882], "deprecated": [false], "efermi": [5.501583], "energy_above_hull": [0.0], "energy_per_atom": [-9.671788], "formation_energy_per_atom": [-0.2547318], "homogeneous_poisson": [0.311], "is_gap_direct": [false], "is_magnetic": [false], "is_metal": [true], "is_stable": [true], "nelements": [2], "nsites": [8], "num_magnetic_sites": [0], "num_unique_magnetic_sites": [0], "theoretical": [false], "total_magnetization": [1e-07], "total_magnetization_normalized_formula_units": [5e-08], "total_magnetization_normalized_vol": [7.230365e-10], "uncorrected_energy_per_atom": [-24.8788], "universal_anisotropy": [0.655], "volume": [138.3056], "equilibrium_reaction_energy_per_atom": [-0.05407323]}