{"includesElement": ["", "Be", "Sc"], "includesElement___series_id": [4, 8], "includesElement__abundance_crust": [2.8, 22.0], "includesElement__atomic_number": [4, 21], "includesElement__atomic_radius": [105.0, 160.0], "includesElement__atomic_radius_rahm": [219.0, 263.0], "includesElement__atomic_volume": [5.0, 15.0], "includesElement__atomic_weight": [9.012183, 44.95591], "includesElement__covalent_radius_cordero": [96.0, 170.0], "includesElement__covalent_radius_pyykko": [102.0, 148.0], "includesElement__covalent_radius_pyykko_double": [90.0, 116.0], "includesElement__covalent_radius_pyykko_triple": [85.0, 114.0], "includesElement__density": [1.85, 2.99], "includesElement__dipole_polarizability": [37.74, 97.0], "includesElement__dipole_polarizability_unc": [0.03, 10.0], "includesElement__discovery_year": [1798, 1879], "includesElement__electron_affinity": [-2.4, 0.188], "includesElement__electronegativity_allred-rochow": [0.0001874279, 0.0001369613], "includesElement__electronegativity_cottrell-sutton": [0.1382666, 0.1423737], "includesElement__electronegativity_ghosh": [0.144986, 0.1193833], "includesElement__electronegativity_gordy": [0.01911765, 0.02027027], "includesElement__electronegativity_mulliken": [3.461349, 3.374745], "includesElement__electronegativity_nagle": [0.3756148, 0.3138941], "includesElement__electronegativity_pauling": [1.57, 1.36], "includesElement__electronegativity_sanderson": [0.1268473, 0.3038674], "includesElement__en_ghosh": [0.144986, 0.1193833], "includesElement__en_pauling": [1.57, 1.36], "includesElement__evaporation_heat": [309.0, 332.7], "includesElement__fusion_heat": [12.21, 15.8], "includesElement__glawe_number": [77, 48], "includesElement__group_id": [2, 3], "includesElement__heat_of_formation": [324.0, 377.8], "includesElement__is_radioactive": [false], "includesElement__lattice_constant": [2.29, 3.31], "includesElement__mendeleev_number": [75, 11], "includesElement__molar_heat_capacity": [16.443, 25.52], "includesElement__period": [2, 4], "includesElement__pettifor_number": [77, 20], "includesElement__specific_heat_capacity": [1.825, 0.568], "includesElement__vdw_radius": [153.0, 215.0], "includesElement__vdw_radius_alvarez": [198.0, 258.0], "includesElement__vdw_radius_mm3": [223.0, 261.0], "includesElement__vdw_radius_uff": [274.5, 329.5], "includesElement__abundance_sea": [5.6e-06, 6e-07], "includesElement__atomic_weight_uncertainty": [5e-07, 5e-06], "includesElement__c6_gb": [214.0, 1570.0], "includesElement__covalent_radius_bragg": [115.0], "includesElement__electronegativity_allen": [9.323, 7.042], "includesElement__en_allen": [9.323, 7.042], "includesElement__metallic_radius": [89.0, 144.0], "includesElement__metallic_radius_c12": [112.0, 162.0], "includesElement__thermal_conductivity": [201.0, 15.8], "includesElement__vdw_radius_batsanov": [190.0, 230.0], "includesElement__c6": [227.0, 1383.0], "includesElement__is_monoisotopic": [true], "includesElement__vdw_radius_truhlar": [153.0], "includesElement__gas_basicity": [892.0], "includesElement__proton_affinity": [914.0], "formula": ["Be5Sc1"], "spacegroup": ["191"], "thermalConductivity": [32.544], "icsd": ["58736"], "band_gap": [0.0], "density": [2.375613], "density_atomic": [10.48687], "deprecated": [false], "efermi": [4.010527], "energy_above_hull": [0.0], "energy_per_atom": [-4.367015], "formation_energy_per_atom": [-0.1954257], "homogeneous_poisson": [0.138], "is_gap_direct": [false], "is_magnetic": [false], "is_metal": [true], "is_stable": [true], "nelements": [2], "nsites": [6], "num_magnetic_sites": [0], "num_unique_magnetic_sites": [0], "theoretical": [false], "total_magnetization": [5e-06], "total_magnetization_normalized_formula_units": [5e-06], "total_magnetization_normalized_vol": [7.946447e-08], "uncorrected_energy_per_atom": [-5.718708], "universal_anisotropy": [0.231], "volume": [62.92121], "equilibrium_reaction_energy_per_atom": [-0.04531716]}