{"includesElement": ["", "F", "K", "Er"], "includesElement___series_id": [6, 3, 9], "includesElement__abundance_crust": [585.0, 20900.0, 3.5], "includesElement__atomic_number": [9, 19, 68], "includesElement__atomic_radius": [50.0, 220.0, 175.0], "includesElement__atomic_radius_rahm": [163.0, 234.0, 272.0], "includesElement__atomic_volume": [17.1, 45.3, 18.4], "includesElement__atomic_weight": [18.9984, 39.0983, 167.259], "includesElement__covalent_radius_cordero": [57.0, 203.0, 189.0], "includesElement__covalent_radius_pyykko": [64.0, 196.0, 165.0], "includesElement__covalent_radius_pyykko_double": [59.0, 193.0, 133.0], "includesElement__covalent_radius_pyykko_triple": [53.0], "includesElement__density": [0.001553, 0.89, 9.07], "includesElement__dipole_polarizability": [3.74, 289.7, 150.0], "includesElement__dipole_polarizability_unc": [0.08, 0.3, 10.0], "includesElement__discovery_year": [1886, 1807, 1843], "includesElement__electron_affinity": [3.40119, 0.50147], "includesElement__electronegativity_allred-rochow": [0.001269531, 5.726781e-05, 0.0001046832], "includesElement__electronegativity_cottrell-sutton": [0.2850439, 0.1059457, 0.1314257], "includesElement__electronegativity_ghosh": [0.344443, 0.0981896, 0.212261], "includesElement__electronegativity_gordy": [0.08125, 0.01122449, 0.01727273], "includesElement__electronegativity_mulliken": [10.412, 2.421067, 3.05385], "includesElement__electronegativity_nagle": [1.232373, 0.1511299, 0.4536061], "includesElement__electronegativity_pauling": [3.98, 0.82, 1.24], "includesElement__electronegativity_sanderson": [1.017681, 0.1218383, 0.5576573], "includesElement__en_ghosh": [0.344443, 0.0981896, 0.212261], "includesElement__en_pauling": [3.98, 0.82, 1.24], "includesElement__evaporation_heat": [6.54, 2.33, 317.0], "includesElement__fusion_heat": [0.51, 102.5], "includesElement__glawe_number": [102, 10, 22], "includesElement__group_id": [17, 1], "includesElement__heat_of_formation": [79.335, 89.0, 316.4], "includesElement__is_radioactive": [false], "includesElement__mendeleev_number": [106, 3, 35], "includesElement__molar_heat_capacity": [31.304, 29.6, 28.12], "includesElement__period": [2, 4, 6], "includesElement__pettifor_number": [102, 10, 23], "includesElement__specific_heat_capacity": [0.824, 0.757, 0.168], "includesElement__vdw_radius": [147.0, 275.0, 229.0], "includesElement__vdw_radius_alvarez": [146.0, 273.0, 283.0], "includesElement__vdw_radius_mm3": [171.0, 309.0, 267.0], "includesElement__vdw_radius_uff": [336.4, 381.2, 339.1], "includesElement__abundance_sea": [1.3, 399.0, 8.7e-07], "includesElement__atomic_weight_uncertainty": [6e-09, 0.0001, 0.003], "includesElement__c6_gb": [10.2, 3910.0, 2150.0], "includesElement__covalent_radius_bragg": [67.0, 207.0], "includesElement__electronegativity_allen": [24.8, 4.34], "includesElement__en_allen": [24.8, 4.34], "includesElement__thermal_conductivity": [0.028, 79.0], "includesElement__vdw_radius_batsanov": [150.0, 280.0], "includesElement__c6": [9.52, 3923.0], "includesElement__is_monoisotopic": [true], "includesElement__vdw_radius_dreiding": [347.2], "includesElement__gas_basicity": [315.1], "includesElement__proton_affinity": [340.1], "includesElement__vdw_radius_bondi": [147.0, 275.0], "includesElement__vdw_radius_rt": [146.0], "includesElement__lattice_constant": [5.23, 3.56], "includesElement__metallic_radius": [203.0], "includesElement__metallic_radius_c12": [235.0], "formula": ["Er6F20K2"], "spacegroup": ["225"], "thermalConductivity": [1.92218], "icsd": ["418210"], "band_gap": [7.0649], "density": [6.583198], "density_atomic": [13.16794], "deprecated": [false], "efermi": [-1.536189], "energy_above_hull": [0.0001089699], "energy_per_atom": [-6.729889], "formation_energy_per_atom": [-4.304938], "is_gap_direct": [true], "is_magnetic": [false], "is_metal": [false], "is_stable": [false], "nelements": [3], "nsites": [28], "num_magnetic_sites": [0], "num_unique_magnetic_sites": [0], "theoretical": [false], "total_magnetization": [0.0], "total_magnetization_normalized_formula_units": [0.0], "total_magnetization_normalized_vol": [0.0], "uncorrected_energy_per_atom": [-14.25149], "volume": [368.7024], "cbm": [5.4609], "vbm": [-1.604]}